<?xml version="1.0" encoding="UTF-8"?>

<!-- generated on 2023-02-11 19:18:09 by Eclipse SUMO GUI Version 1.10.0
<configuration xmlns:xsi="http://www.w3.org/2001/XMLSchema-instance" xsi:noNamespaceSchemaLocation="http://sumo.dlr.de/xsd/sumoConfiguration.xsd">

    <input>
        <net-file value="Simulation_Environment\Main%20MADDPG\osm.net.xml"/>
        <additional-files value="Simulation_Environment\Main%20MADDPG\osm.poly.xml,Simulation_Environment\Main%20MADDPG\lanearea_detectors.xml,Simulation_Environment\Main%20MADDPG\trips.trips.xml"/>
    </input>

    <output>
        <tripinfo-output value="Simulation_Environment\Main%20MADDPG\Results\tripinfo.xml"/>
    </output>

    <processing>
        <ignore-route-errors value="true"/>
    </processing>

    <routing>
        <device.rerouting.adaptation-steps value="18"/>
        <device.rerouting.adaptation-interval value="10"/>
    </routing>

    <report>
        <verbose value="true"/>
        <duration-log.statistics value="true"/>
        <no-step-log value="true"/>
    </report>

    <traci_server>
        <remote-port value="54325"/>
    </traci_server>

    <gui_only>
        <gui-settings-file value="Simulation_Environment\Main%20MADDPG\osm.view.xml"/>
        <start value="true"/>
    </gui_only>

</configuration>
-->

<tripinfos xmlns:xsi="http://www.w3.org/2001/XMLSchema-instance" xsi:noNamespaceSchemaLocation="http://sumo.dlr.de/xsd/tripinfo_file.xsd">
</tripinfos>
id="1" depart="5.00" departLane="north_corrales_1_0" departPos="5.10" departSpeed="0.00" departDelay="0.00" arrival="50.00" arrivalLane="north_corrales_1_0" arrivalPos="310.82" arrivalSpeed="7.39" duration="45.00" routeLength="305.72" waitingTime="0.00" waitingCount="0" stopTime="0.00" timeLoss="5.26" rerouteNo="1" devices="tripinfo_1 routing_1" vType="DEFAULT_VEHTYPE" speedFactor="0.94" vaporized=""/>
    <tripinfo id="3" depart="15.00" departLane="west_recto_0_0" departPos="5.10" departSpeed="0.00" departDelay="0.00" arrival="78.00" arrivalLane="east_luna_2_0" arrivalPos="117.06" arrivalSpeed="8.81" duration="63.00" routeLength="513.48" waitingTime="0.00" waitingCount="0" stopTime="0.00" timeLoss="7.37" rerouteNo="1" devices="tripinfo_3 routing_3" vType="DEFAULT_VEHTYPE" speedFactor="1.08" vaporized=""/>
    <tripinfo id="2" depart="10.00" departLane="south_roa_1_0" departPos="5.10" departSpeed="0.00" departDelay="0.00" arrival="83.00" arrivalLane="south_osmena_3_1" arrivalPos="103.19" arrivalSpeed="7.84" duration="73.00" routeLength="589.16" waitingTime="0.00" waitingCount="0" stopTime="0.00" timeLoss="7.33" rerouteNo="1" devices="tripinfo_2 routing_2" vType="DEFAULT_VEHTYPE" speedFactor="1.01" vaporized=""/>
    <tripinfo id="14" depart="70.00" departLane="west_luna_2_0" departPos="5.10" departSpeed="0.00" departDelay="0.00" arrival="101.00" arrivalLane="south_osmena_1_1" arrivalPos="42.12" arrivalSpeed="7.91" duration="31.00" routeLength="218.17" waitingTime="0.00" waitingCount="0" stopTime="0.00" timeLoss="4.14" rerouteNo="0" devices="tripinfo_14 routing_14" vType="DEFAULT_VEHTYPE" speedFactor="0.99" vaporized=""/>
    <tripinfo id="13" depart="65.00" departLane="east_luna_1_0" departPos="5.10" departSpeed="0.00" departDelay="0.00" arrival="136.00" arrivalLane="east_luna_2_0" arrivalPos="117.06" arrivalSpeed="8.53" duration="71.00" routeLength="357.18" waitingTime="22.00" waitingCount="1" stopTime="0.00" timeLoss="32.21" rerouteNo="0" devices="tripinfo_13 routing_13" vType="DEFAULT_VEHTYPE" speedFactor="1.12" vaporized=""/>
    <tripinfo id="20" depart="100.00" departLane="south_roa_0_0" departPos="5.10" departSpeed="0.00" departDelay="0.00" arrival="149.00" arrivalLane="east_luna_1_0" arrivalPos="221.96" arrivalSpeed="8.05" duration="49.00" routeLength="309.10" waitingTime="5.00" waitingCount="1" stopTime="0.00" timeLoss="11.62" rerouteNo="0" devices="tripinfo_20 routing_20" vType="DEFAULT_VEHTYPE" speedFactor="1.02" vaporized=""/>
    <tripinfo id="15" depart="75.00" departLane="west_luna_1_0" departPos="5.10" departSpeed="0.00" departDelay="0.00" arrival="153.00" arrivalLane="south_roa_1_0" arrivalPos="299.38" arrivalSpeed="6.59" duration="78.00" routeLength="533.23" waitingTime="0.00" waitingCount="0" stopTime="0.00" timeLoss="8.36" rerouteNo="0" devices="tripinfo_15 routing_15" vType="DEFAULT_VEHTYPE" speedFactor="0.93" vaporized=""/>
    <tripinfo id="9" depart="45.00" departLane="west_luna_1_0" departPos="5.10" departSpeed="0.00" departDelay="0.00" arrival="156.00" arrivalLane="east_luna_0_0" arrivalPos="161.58" arrivalSpeed="6.81" duration="111.00" routeLength="673.17" waitingTime="0.00" waitingCount="0" stopTime="0.00" timeLoss="15.06" rerouteNo="1" devices="tripinfo_9 routing_9" vType="DEFAULT_VEHTYPE" speedFactor="0.86" vaporized=""/>
    <tripinfo id="18" depart="90.00" departLane="west_luna_1_0" departPos="5.10" departSpeed="0.00" departDelay="0.00" arrival="156.00" arrivalLane="south_osmena_1_1" arrivalPos="42.12" arrivalSpeed="6.78" duration="66.00" routeLength="454.96" waitingTime="0.00" waitingCount="0" stopTime="0.00" timeLoss="6.82" rerouteNo="1" devices="tripinfo_18 routing_18" vType="DEFAULT_VEHTYPE" speedFactor="0.94" vaporized=""/>
    <tripinfo id="12" depart="60.00" departLane="west_recto_1_0" departPos="5.10" departSpeed="0.00" departDelay="0.00" arrival="158.00" arrivalLane="north_osmena_2_0" arrivalPos="42.12" arrivalSpeed="7.73" duration="98.00" routeLength="619.34" waitingTime="26.00" waitingCount="1" stopTime="0.00" timeLoss="35.76" rerouteNo="1" devices="tripinfo_12 routing_12" vType="DEFAULT_VEHTYPE" speedFactor="1.05" vaporized=""/>
    <tripinfo id="4" depart="20.00" departLane="north_roa_0_0" departPos="5.10" departSpeed="0.00" departDelay="0.00" arrival="182.00" arrivalLane="east_luna_0_0" arrivalPos="161.58" arrivalSpeed="7.35" duration="162.00" routeLength="753.14" waitingTime="56.00" waitingCount="2" stopTime="0.00" timeLoss="73.04" rerouteNo="1" devices="tripinfo_4 routing_4" vType="DEFAULT_VEHTYPE" speedFactor="1.03" vaporized=""/>
    <tripinfo id="10" depart="50.00" departLane="west_luna_1_0" departPos="5.10" departSpeed="0.00" departDelay="0.00" arrival="200.00" arrivalLane="south_osmena_3_1" arrivalPos="103.19" arrivalSpeed="9.01" duration="150.00" routeLength="828.11" waitingTime="49.00" waitingCount="1" stopTime="0.00" timeLoss="63.30" rerouteNo="1" devices="tripinfo_10 routing_10" vType="DEFAULT_VEHTYPE" speedFactor="1.09" vaporized=""/>
    <tripinfo id="32" depart="160.00" departLane="west_luna_2_0" departPos="5.10" departSpeed="0.00" departDelay="0.00" arrival="200.00" arrivalLane="west_florentino_0_0" arrivalPos="95.58" arrivalSpeed="12.87" duration="40.00" routeLength="322.94" waitingTime="0.00" waitingCount="0" stopTime="0.00" timeLoss="6.01" rerouteNo="1" devices="tripinfo_32 routing_32" vType="DEFAULT_VEHTYPE" speedFactor="1.01" vaporized=""/>
    <tripinfo id="29" depart="145.00" departLane="east_recto_0_0" departPos="5.10" departSpeed="0.00" departDelay="0.00" arrival="227.00" arrivalLane="north_osmena_3_0" arrivalPos="107.11" arrivalSpeed="6.92" duration="82.00" routeLength="605.92" waitingTime="0.00" waitingCount="0" stopTime="0.00" timeLoss="9.31" rerouteNo="1" devices="tripinfo_29 routing_29" vType="DEFAULT_VEHTYPE" speedFactor="0.93" vaporized=""/>
    <tripinfo id="39" depart="195.00" departLane="north_corrales_1_0" departPos="5.10" departSpeed="0.00" departDelay="0.00" arrival="241.00" arrivalLane="north_corrales_1_0" arrivalPos="310.82" arrivalSpeed="6.45" duration="46.00" routeLength="305.72" waitingTime="0.00" waitingCount="0" stopTime="0.00" timeLoss="4.94" rerouteNo="1" devices="tripinfo_39 routing_39" vType="DEFAULT_VEHTYPE" speedFactor="0.90" vaporized=""/>
    <tripinfo id="44" depart="220.00" departLane="east_luna_1_0" departPos="5.10" departSpeed="0.00" departDelay="0.00" arrival="249.00" arrivalLane="east_luna_1_0" arrivalPos="221.96" arrivalSpeed="8.69" duration="29.00" routeLength="216.86" waitingTime="0.00" waitingCount="0" stopTime="0.00" timeLoss="3.71" rerouteNo="1" devices="tripinfo_44 routing_44" vType="DEFAULT_VEHTYPE" speedFactor="1.04" vaporized=""/>
    <tripinfo id="23" depart="115.00" departLane="east_luna_1_0" departPos="5.10" departSpeed="0.00" departDelay="0.00" arrival="254.00" arrivalLane="north_corrales_2_1" arrivalPos="70.13" arrivalSpeed="6.40" duration="139.00" routeLength="310.90" waitingTime="88.00" waitingCount="1" stopTime="0.00" timeLoss="96.42" rerouteNo="0" devices="tripinfo_23 routing_23" vType="DEFAULT_VEHTYPE" speedFactor="0.89" vaporized=""/>
    <tripinfo id="26" depart="130.00" departLane="north_corrales_1_0" departPos="5.10" departSpeed="0.00" departDelay="0.00" arrival="282.00" arrivalLane="west_recto_2_0" arrivalPos="159.43" arrivalSpeed="8.99" duration="152.00" routeLength="1035.06" waitingTime="1.00" waitingCount="1" stopTime="0.00" timeLoss="20.68" rerouteNo="1" devices="tripinfo_26 routing_26" vType="DEFAULT_VEHTYPE" speedFactor="0.92" vaporized=""/>
    <tripinfo id="28" depart="140.00" departLane="east_recto_1_0" departPos="5.10" departSpeed="0.00" departDelay="0.00" arrival="283.00" arrivalLane="south_roa_1_0" arrivalPos="299.38" arrivalSpeed="9.16" duration="143.00" routeLength="1226.13" waitingTime="3.00" waitingCount="1" stopTime="0.00" timeLoss="21.11" rerouteNo="1" devices="tripinfo_28 routing_28" vType="DEFAULT_VEHTYPE" speedFactor="1.13" vaporized=""/>
    <tripinfo id="36" depart="180.00" departLane="west_recto_0_0" departPos="5.10" departSpeed="0.00" departDelay="0.00" arrival="308.00" arrivalLane="north_osmena_1_0" arrivalPos="222.57" arrivalSpeed="7.50" duration="128.00" routeLength="655.78" waitingTime="48.00" waitingCount="1" stopTime="0.00" timeLoss="59.71" rerouteNo="1" devices="tripinfo_36 routing_36" vType="DEFAULT_VEHTYPE" speedFactor="0.97" vaporized=""/>
    <tripinfo id="38" depart="190.00" departLane="west_recto_0_0" departPos="5.10" departSpeed="0.00" departDelay="0.00" arrival="322.00" arrivalLane="north_roa_1_0" arrivalPos="75.42" arrivalSpeed="8.82" duration="132.00" routeLength="713.32" waitingTime="41.00" waitingCount="1" stopTime="0.00" timeLoss="54.35" rerouteNo="1" devices="tripinfo_38 routing_38" vType="DEFAULT_VEHTYPE" speedFactor="1.10" vaporized=""/>
    <tripinfo id="66" depart="330.00" departLane="west_recto_0_0" departPos="5.10" departSpeed="0.00" departDelay="0.00" arrival="401.00" arrivalLane="west_recto_2_0" arrivalPos="159.43" arrivalSpeed="9.85" duration="71.00" routeLength="421.26" waitingTime="19.00" waitingCount="1" stopTime="0.00" timeLoss="29.03" rerouteNo="1" devices="tripinfo_66 routing_66" vType="DEFAULT_VEHTYPE" speedFactor="0.91" vaporized=""/>
    <tripinfo id="55" depart="275.00" departLane="west_recto_0_0" departPos="5.10" departSpeed="0.00" departDelay="0.00" arrival="415.00" arrivalLane="north_corrales_2_0" arrivalPos="70.13" arrivalSpeed="8.08" duration="140.00" routeLength="478.39" waitingTime="73.00" waitingCount="1" stopTime="0.00" timeLoss="83.29" rerouteNo="1" devices="tripinfo_55 routing_55" vType="DEFAULT_VEHTYPE" speedFactor="1.00" vaporized=""/>
    <tripinfo id="60" depart="300.00" departLane="west_luna_0_0" departPos="5.10" departSpeed="0.00" departDelay="0.00" arrival="434.00" arrivalLane="south_corrales_1_0" arrivalPos="312.28" arrivalSpeed="4.57" duration="134.00" routeLength="446.78" waitingTime="70.00" waitingCount="2" stopTime="0.00" timeLoss="84.35" rerouteNo="0" devices="tripinfo_60 routing_60" vType="DEFAULT_VEHTYPE" speedFactor="1.08" vaporized=""/>
    <tripinfo id="50" depart="250.00" departLane="east_florentino_0_0" departPos="5.10" departSpeed="0.00" departDelay="0.00" arrival="443.00" arrivalLane="south_roa_1_0" arrivalPos="299.38" arrivalSpeed="6.18" duration="193.00" routeLength="629.47" waitingTime="95.00" waitingCount="1" stopTime="0.00" timeLoss="108.84" rerouteNo="1" devices="tripinfo_50 routing_50" vType="DEFAULT_VEHTYPE" speedFactor="0.85" vaporized=""/>
    <tripinfo id="64" depart="320.00" departLane="west_recto_0_0" departPos="5.10" departSpeed="0.00" departDelay="0.00" arrival="443.00" arrivalLane="west_luna_1_0" arrivalPos="221.96" arrivalSpeed="6.59" duration="123.00" routeLength="628.53" waitingTime="29.00" waitingCount="1" stopTime="0.00" timeLoss="43.64" rerouteNo="1" devices="tripinfo_64 routing_64" vType="DEFAULT_VEHTYPE" speedFactor="0.94" vaporized=""/>
    <tripinfo id="78" depart="390.00" departLane="north_osmena_1_0" departPos="5.10" departSpeed="0.00" departDelay="0.00" arrival="445.00" arrivalLane="south_osmena_1_1" arrivalPos="42.12" arrivalSpeed="8.01" duration="55.00" routeLength="320.85" waitingTime="7.00" waitingCount="1" stopTime="0.00" timeLoss="15.46" rerouteNo="1" devices="tripinfo_78 routing_78" vType="DEFAULT_VEHTYPE" speedFactor="1.01" vaporized=""/>
    <tripinfo id="8" depart="40.00" departLane="north_corrales_0_0" departPos="5.10" departSpeed="0.00" departDelay="0.00" arrival="454.00" arrivalLane="south_osmena_1_1" arrivalPos="42.12" arrivalSpeed="7.57" duration="414.00" routeLength="798.09" waitingTime="304.00" waitingCount="2" stopTime="0.00" timeLoss="321.06" rerouteNo="1" devices="tripinfo_8 routing_8" vType="DEFAULT_VEHTYPE" speedFactor="0.94" vaporized=""/>
    <tripinfo id="71" depart="355.00" departLane="north_corrales_1_0" departPos="5.10" departSpeed="0.00" departDelay="0.00" arrival="457.00" arrivalLane="west_luna_2_0" arrivalPos="161.58" arrivalSpeed="7.07" duration="102.00" routeLength="726.64" waitingTime="0.00" waitingCount="0" stopTime="0.00" timeLoss="12.04" rerouteNo="1" devices="tripinfo_71 routing_71" vType="DEFAULT_VEHTYPE" speedFactor="0.97" vaporized=""/>
    <tripinfo id="92" depart="460.00" departLane="north_osmena_2_0" departPos="5.10" departSpeed="0.00" departDelay="0.00" arrival="468.00" arrivalLane="north_osmena_2_0" arrivalPos="42.12" arrivalSpeed="5.96" duration="8.00" routeLength="37.02" waitingTime="0.00" waitingCount="0" stopTime="0.00" timeLoss="2.07" rerouteNo="1" devices="tripinfo_92 routing_92" vType="DEFAULT_VEHTYPE" speedFactor="0.83" vaporized=""/>
    <tripinfo id="40" depart="200.00" departLane="south_osmena_0_0" departPos="5.10" departSpeed="0.00" departDelay="0.00" arrival="494.00" arrivalLane="north_corrales_2_1" arrivalPos="70.13" arrivalSpeed="8.03" duration="294.00" routeLength="614.05" waitingTime="202.00" waitingCount="2" stopTime="0.00" timeLoss="221.62" rerouteNo="1" devices="tripinfo_40 routing_40" vType="DEFAULT_VEHTYPE" speedFactor="1.03" vaporized=""/>
    <tripinfo id="16" depart="80.00" departLane="south_corrales_1_0" departPos="5.10" departSpeed="0.00" departDelay="0.00" arrival="503.00" arrivalLane="west_recto_3_0" arrivalPos="180.94" arrivalSpeed="8.55" duration="423.00" routeLength="842.84" waitingTime="310.00" waitingCount="2" stopTime="0.00" timeLoss="326.47" rerouteNo="1" devices="tripinfo_16 routing_16" vType="DEFAULT_VEHTYPE" speedFactor="0.88" vaporized=""/>
    <tripinfo id="30" depart="150.00" departLane="west_recto_2_0" departPos="5.10" departSpeed="0.00" departDelay="0.00" arrival="507.00" arrivalLane="south_osmena_2_0" arrivalPos="222.57" arrivalSpeed="7.33" duration="357.00" routeLength="729.22" waitingTime="274.00" waitingCount="1" stopTime="0.00" timeLoss="285.46" rerouteNo="1" devices="tripinfo_30 routing_30" vType="DEFAULT_VEHTYPE" speedFactor="1.18" vaporized=""/>
    <tripinfo id="52" depart="260.00" departLane="north_corrales_1_0" departPos="5.10" departSpeed="0.00" departDelay="0.00" arrival="509.00" arrivalLane="south_osmena_2_0" arrivalPos="222.57" arrivalSpeed="7.77" duration="249.00" routeLength="1025.32" waitingTime="110.00" waitingCount="1" stopTime="0.00" timeLoss="127.48" rerouteNo="1" devices="tripinfo_52 routing_52" vType="DEFAULT_VEHTYPE" speedFactor="1.02" vaporized=""/>
    <tripinfo id="45" depart="225.00" departLane="east_luna_1_0" departPos="5.10" departSpeed="0.00" departDelay="0.00" arrival="512.00" arrivalLane="south_osmena_2_0" arrivalPos="222.57" arrivalSpeed="8.01" duration="287.00" routeLength="1099.59" waitingTime="140.00" waitingCount="2" stopTime="0.00" timeLoss="164.74" rerouteNo="1" devices="tripinfo_45 routing_45" vType="DEFAULT_VEHTYPE" speedFactor="1.09" vaporized=""/>
    <tripinfo id="86" depart="430.00" departLane="south_corrales_0_0" departPos="5.10" departSpeed="0.00" departDelay="0.00" arrival="512.00" arrivalLane="west_florentino_0_0" arrivalPos="95.58" arrivalSpeed="13.37" duration="82.00" routeLength="646.70" waitingTime="0.00" waitingCount="0" stopTime="0.00" timeLoss="8.30" rerouteNo="1" devices="tripinfo_86 routing_86" vType="DEFAULT_VEHTYPE" speedFactor="1.00" vaporized=""/>
    <tripinfo id="75" depart="375.00" departLane="west_recto_2_0" departPos="5.10" departSpeed="0.00" departDelay="0.00" arrival="514.00" arrivalLane="south_osmena_2_0" arrivalPos="222.57" arrivalSpeed="8.17" duration="139.00" routeLength="729.22" waitingTime="34.00" waitingCount="2" stopTime="0.00" timeLoss="53.60" rerouteNo="1" devices="tripinfo_75 routing_75" vType="DEFAULT_VEHTYPE" speedFactor="0.98" vaporized=""/>
    <tripinfo id="31" depart="155.00" departLane="south_osmena_0_0" departPos="5.10" departSpeed="0.00" departDelay="0.00" arrival="515.00" arrivalLane="south_osmena_3_0" arrivalPos="103.19" arrivalSpeed="8.80" duration="360.00" routeLength="505.09" waitingTime="301.00" waitingCount="1" stopTime="0.00" timeLoss="307.91" rerouteNo="1" devices="tripinfo_31 routing_31" vType="DEFAULT_VEHTYPE" speedFactor="1.15" vaporized=""/>
    <tripinfo id="100" depart="500.00" departLane="west_recto_2_0" departPos="5.10" departSpeed="0.00" departDelay="0.00" arrival="517.00" arrivalLane="west_recto_2_0" arrivalPos="159.43" arrivalSpeed="10.95" duration="17.00" routeLength="154.33" waitingTime="0.00" waitingCount="0" stopTime="0.00" timeLoss="3.14" rerouteNo="1" devices="tripinfo_100 routing_100" vType="DEFAULT_VEHTYPE" speedFactor="1.07" vaporized=""/>
    <tripinfo id="0" depart="0.00" departLane="south_osmena_2_0" departPos="5.10" departSpeed="0.00" departDelay="0.00" arrival="547.00" arrivalLane="east_luna_0_1" arrivalPos="161.58" arrivalSpeed="8.34" duration="547.00" routeLength="1588.64" waitingTime="342.00" waitingCount="3" stopTime="0.00" timeLoss="376.18" rerouteNo="1" devices="tripinfo_0 routing_0" vType="DEFAULT_VEHTYPE" speedFactor="1.06" vaporized=""/>
    <tripinfo id="90" depart="450.00" departLane="south_roa_1_0" departPos="5.10" departSpeed="0.00" departDelay="0.00" arrival="564.00" arrivalLane="south_osmena_3_1" arrivalPos="103.19" arrivalSpeed="8.44" duration="114.00" routeLength="589.16" waitingTime="35.00" waitingCount="1" stopTime="0.00" timeLoss="48.58" rerouteNo="1" devices="tripinfo_90 routing_90" vType="DEFAULT_VEHTYPE" speedFactor="1.02" vaporized=""/>
    <tripinfo id="34" depart="170.00" departLane="north_osmena_0_0" departPos="5.10" departSpeed="0.00" departDelay="0.00" arrival="583.00" arrivalLane="north_corrales_2_0" arrivalPos="70.13" arrivalSpeed="7.26" duration="413.00" routeLength="861.50" waitingTime="302.00" waitingCount="2" stopTime="0.00" timeLoss="319.17" rerouteNo="1" devices="tripinfo_34 routing_34" vType="DEFAULT_VEHTYPE" speedFactor="0.99" vaporized=""/>
    <tripinfo id="109" depart="545.00" departLane="east_recto_0_0" departPos="5.10" departSpeed="0.00" departDelay="0.00" arrival="598.00" arrivalLane="north_osmena_1_0" arrivalPos="222.57" arrivalSpeed="7.53" duration="53.00" routeLength="421.41" waitingTime="0.00" waitingCount="0" stopTime="0.00" timeLoss="5.92" rerouteNo="0" devices="tripinfo_109 routing_109" vType="DEFAULT_VEHTYPE" speedFactor="0.96" vaporized=""/>
    <tripinfo id="119" depart="595.00" departLane="south_osmena_1_0" departPos="5.10" departSpeed="0.00" departDelay="0.00" arrival="601.00" arrivalLane="south_osmena_1_0" arrivalPos="42.12" arrivalSpeed="7.79" duration="6.00" routeLength="37.02" waitingTime="0.00" waitingCount="0" stopTime="0.00" timeLoss="1.83" rerouteNo="1" devices="tripinfo_119 routing_119" vType="DEFAULT_VEHTYPE" speedFactor="1.07" vaporized=""/>
    <tripinfo id="114" depart="570.00" departLane="east_recto_0_0" departPos="5.10" departSpeed="0.00" departDelay="0.00" arrival="608.00" arrivalLane="west_recto_3_2" arrivalPos="180.94" arrivalSpeed="11.22" duration="38.00" routeLength="362.53" waitingTime="0.00" waitingCount="0" stopTime="0.00" timeLoss="6.94" rerouteNo="0" devices="tripinfo_114 routing_114" vType="DEFAULT_VEHTYPE" speedFactor="1.10" vaporized=""/>
    <tripinfo id="108" depart="540.00" departLane="south_osmena_0_0" departPos="5.10" departSpeed="0.00" departDelay="0.00" arrival="616.00" arrivalLane="south_roa_1_0" arrivalPos="299.38" arrivalSpeed="8.22" duration="76.00" routeLength="591.92" waitingTime="0.00" waitingCount="0" stopTime="0.00" timeLoss="8.12" rerouteNo="1" devices="tripinfo_108 routing_108" vType="DEFAULT_VEHTYPE" speedFactor="1.06" vaporized=""/>
    <tripinfo id="57" depart="285.00" departLane="west_recto_0_0" departPos="5.10" departSpeed="0.00" departDelay="0.00" arrival="620.00" arrivalLane="west_luna_2_1" arrivalPos="161.58" arrivalSpeed="9.11" duration="335.00" routeLength="734.87" waitingTime="233.00" waitingCount="4" stopTime="0.00" timeLoss="263.16" rerouteNo="1" devices="tripinfo_57 routing_57" vType="DEFAULT_VEHTYPE" speedFactor="1.14" vaporized=""/>
    <tripinfo id="107" depart="535.00" departLane="west_recto_1_0" departPos="5.10" departSpeed="0.00" departDelay="0.00" arrival="621.00" arrivalLane="west_recto_3_2" arrivalPos="180.94" arrivalSpeed="11.04" duration="86.00" routeLength="530.56" waitingTime="28.00" waitingCount="1" stopTime="0.00" timeLoss="39.13" rerouteNo="1" devices="tripinfo_107 routing_107" vType="DEFAULT_VEHTYPE" speedFactor="1.03" vaporized=""/>
    <tripinfo id="74" depart="370.00" departLane="east_recto_1_0" departPos="5.10" departSpeed="0.00" departDelay="0.00" arrival="633.00" arrivalLane="north_osmena_1_0" arrivalPos="222.57" arrivalSpeed="7.72" duration="263.00" routeLength="1629.11" waitingTime="49.00" waitingCount="1" stopTime="0.00" timeLoss="73.46" rerouteNo="1" devices="tripinfo_74 routing_74" vType="DEFAULT_VEHTYPE" speedFactor="0.96" vaporized=""/>
    <tripinfo id="56" depart="280.00" departLane="south_corrales_1_0" departPos="5.10" departSpeed="0.00" departDelay="0.00" arrival="636.00" arrivalLane="east_recto_2_0" arrivalPos="69.61" arrivalSpeed="9.11" duration="356.00" routeLength="376.79" waitingTime="301.00" waitingCount="1" stopTime="0.00" timeLoss="308.48" rerouteNo="0" devices="tripinfo_56 routing_56" vType="DEFAULT_VEHTYPE" speedFactor="0.90" vaporized=""/>
    <tripinfo id="62" depart="310.00" departLane="east_florentino_0_0" departPos="5.10" departSpeed="0.00" departDelay="0.00" arrival="636.00" arrivalLane="north_osmena_1_0" arrivalPos="222.57" arrivalSpeed="7.88" duration="326.00" routeLength="1032.45" waitingTime="183.00" waitingCount="3" stopTime="0.00" timeLoss="210.95" rerouteNo="1" devices="tripinfo_62 routing_62" vType="DEFAULT_VEHTYPE" speedFactor="1.02" vaporized=""/>
    <tripinfo id="47" depart="235.00" departLane="east_luna_0_0" departPos="5.10" departSpeed="0.00" departDelay="0.00" arrival="641.00" arrivalLane="north_osmena_3_0" arrivalPos="107.11" arrivalSpeed="6.67" duration="406.00" routeLength="616.44" waitingTime="298.00" waitingCount="3" stopTime="0.00" timeLoss="321.81" rerouteNo="1" devices="tripinfo_47 routing_47" vType="DEFAULT_VEHTYPE" speedFactor="0.90" vaporized=""/>
    <tripinfo id="105" depart="525.00" departLane="north_corrales_1_0" departPos="5.10" departSpeed="0.00" departDelay="0.00" arrival="642.00" arrivalLane="west_florentino_0_0" arrivalPos="95.58" arrivalSpeed="14.80" duration="117.00" routeLength="893.10" waitingTime="5.00" waitingCount="1" stopTime="0.00" timeLoss="20.76" rerouteNo="1" devices="tripinfo_105 routing_105" vType="DEFAULT_VEHTYPE" speedFactor="1.07" vaporized=""/>
    <tripinfo id="118" depart="590.00" departLane="west_recto_0_0" departPos="5.10" departSpeed="0.00" departDelay="0.00" arrival="643.00" arrivalLane="north_corrales_1_0" arrivalPos="310.82" arrivalSpeed="7.88" duration="53.00" routeLength="384.02" waitingTime="0.00" waitingCount="0" stopTime="0.00" timeLoss="7.39" rerouteNo="0" devices="tripinfo_118 routing_118" vType="DEFAULT_VEHTYPE" speedFactor="0.99" vaporized=""/>
    <tripinfo id="104" depart="524.00" departLane="north_osmena_2_0" departPos="5.10" departSpeed="0.00" departDelay="4.00" arrival="645.00" arrivalLane="west_recto_3_0" arrivalPos="180.94" arrivalSpeed="9.87" duration="121.00" routeLength="887.63" waitingTime="0.00" waitingCount="0" stopTime="0.00" timeLoss="12.86" rerouteNo="1" devices="tripinfo_104 routing_104" vType="DEFAULT_VEHTYPE" speedFactor="0.89" vaporized=""/>
    <tripinfo id="111" depart="555.00" departLane="south_osmena_0_0" departPos="5.10" departSpeed="0.00" departDelay="0.00" arrival="648.00" arrivalLane="south_roa_1_0" arrivalPos="299.38" arrivalSpeed="7.07" duration="93.00" routeLength="591.92" waitingTime="0.00" waitingCount="0" stopTime="0.00" timeLoss="10.15" rerouteNo="1" devices="tripinfo_111 routing_111" vType="DEFAULT_VEHTYPE" speedFactor="0.87" vaporized=""/>
    <tripinfo id="67" depart="335.00" departLane="east_luna_1_0" departPos="5.10" departSpeed="0.00" departDelay="0.00" arrival="673.00" arrivalLane="north_roa_1_0" arrivalPos="75.42" arrivalSpeed="6.98" duration="338.00" routeLength="709.29" waitingTime="227.00" waitingCount="2" stopTime="0.00" timeLoss="243.01" rerouteNo="1" devices="tripinfo_67 routing_67" vType="DEFAULT_VEHTYPE" speedFactor="0.91" vaporized=""/>
    <tripinfo id="112" depart="560.00" departLane="east_luna_0_0" departPos="5.10" departSpeed="0.00" departDelay="0.00" arrival="677.00" arrivalLane="south_osmena_1_1" arrivalPos="42.12" arrivalSpeed="8.92" duration="117.00" routeLength="971.26" waitingTime="0.00" waitingCount="0" stopTime="0.00" timeLoss="13.41" rerouteNo="1" devices="tripinfo_112 routing_112" vType="DEFAULT_VEHTYPE" speedFactor="1.10" vaporized=""/>
    <tripinfo id="58" depart="290.00" departLane="north_osmena_0_0" departPos="5.10" departSpeed="0.00" departDelay="0.00" arrival="679.00" arrivalLane="south_osmena_2_0" arrivalPos="222.57" arrivalSpeed="7.31" duration="389.00" routeLength="659.72" waitingTime="301.00" waitingCount="1" stopTime="0.00" timeLoss="311.71" rerouteNo="1" devices="tripinfo_58 routing_58" vType="DEFAULT_VEHTYPE" speedFactor="1.02" vaporized=""/>
    <tripinfo id="116" depart="580.00" departLane="south_osmena_1_0" departPos="5.10" departSpeed="0.00" departDelay="0.00" arrival="679.00" arrivalLane="south_osmena_3_1" arrivalPos="103.19" arrivalSpeed="9.28" duration="99.00" routeLength="858.53" waitingTime="0.00" waitingCount="0" stopTime="0.00" timeLoss="14.28" rerouteNo="1" devices="tripinfo_116 routing_116" vType="DEFAULT_VEHTYPE" speedFactor="1.18" vaporized=""/>
    <tripinfo id="63" depart="315.00" departLane="east_florentino_0_0" departPos="5.10" departSpeed="0.00" departDelay="0.00" arrival="690.00" arrivalLane="west_recto_2_1" arrivalPos="159.43" arrivalSpeed="9.02" duration="375.00" routeLength="797.93" waitingTime="263.00" waitingCount="3" stopTime="0.00" timeLoss="285.79" rerouteNo="1" devices="tripinfo_63 routing_63" vType="DEFAULT_VEHTYPE" speedFactor="0.99" vaporized=""/>
    <tripinfo id="21" depart="105.00" departLane="north_corrales_0_0" departPos="5.10" departSpeed="0.00" departDelay="0.00" arrival="705.00" arrivalLane="north_corrales_2_0" arrivalPos="70.13" arrivalSpeed="7.91" duration="600.00" routeLength="532.04" waitingTime="526.00" waitingCount="2" stopTime="0.00" timeLoss="537.19" rerouteNo="1" devices="tripinfo_21 routing_21" vType="DEFAULT_VEHTYPE" speedFactor="1.01" vaporized=""/>
    <tripinfo id="82" depart="410.00" departLane="west_luna_2_0" departPos="5.10" departSpeed="0.00" departDelay="0.00" arrival="722.00" arrivalLane="east_luna_1_1" arrivalPos="221.96" arrivalSpeed="6.54" duration="312.00" routeLength="672.89" waitingTime="212.00" waitingCount="2" stopTime="0.00" timeLoss="231.00" rerouteNo="1" devices="tripinfo_82 routing_82" vType="DEFAULT_VEHTYPE" speedFactor="1.02" vaporized=""/>
    <tripinfo id="98" depart="490.00" departLane="south_osmena_0_0" departPos="5.10" departSpeed="0.00" departDelay="0.00" arrival="724.00" arrivalLane="east_luna_1_1" arrivalPos="221.96" arrivalSpeed="7.10" duration="234.00" routeLength="520.01" waitingTime="162.00" waitingCount="2" stopTime="0.00" timeLoss="178.00" rerouteNo="1" devices="tripinfo_98 routing_98" vType="DEFAULT_VEHTYPE" speedFactor="1.12" vaporized=""/>
    <tripinfo id="103" depart="515.00" departLane="north_osmena_2_0" departPos="5.10" departSpeed="0.00" departDelay="0.00" arrival="727.00" arrivalLane="east_luna_1_1" arrivalPos="221.96" arrivalSpeed="7.29" duration="212.00" routeLength="444.94" waitingTime="137.00" waitingCount="2" stopTime="0.00" timeLoss="154.80" rerouteNo="1" devices="tripinfo_103 routing_103" vType="DEFAULT_VEHTYPE" speedFactor="0.95" vaporized=""/>
    <tripinfo id="130" depart="650.00" departLane="west_recto_0_0" departPos="5.10" departSpeed="0.00" departDelay="0.00" arrival="739.00" arrivalLane="west_recto_1_0" arrivalPos="159.53" arrivalSpeed="11.02" duration="89.00" routeLength="247.45" waitingTime="58.00" waitingCount="1" stopTime="0.00" timeLoss="67.20" rerouteNo="0" devices="tripinfo_130 routing_130" vType="DEFAULT_VEHTYPE" speedFactor="1.03" vaporized=""/>
    <tripinfo id="7" depart="35.00" departLane="south_osmena_2_0" departPos="5.10" departSpeed="0.00" departDelay="0.00" arrival="742.00" arrivalLane="south_corrales_2_0" arrivalPos="131.95" arrivalSpeed="6.77" duration="707.00" routeLength="694.52" waitingTime="609.00" waitingCount="3" stopTime="0.00" timeLoss="624.45" rerouteNo="1" devices="tripinfo_7 routing_7" vType="DEFAULT_VEHTYPE" speedFactor="0.89" vaporized=""/>