<?xml version="1.0" encoding="UTF-8"?>

<!-- generated on 2023-02-08 19:15:12 by Eclipse SUMO sumo Version 1.10.0
<configuration xmlns:xsi="http://www.w3.org/2001/XMLSchema-instance" xsi:noNamespaceSchemaLocation="http://sumo.dlr.de/xsd/sumoConfiguration.xsd">

    <input>
        <net-file value="Simulation_Environment\Main%20MADDPG\osm.net.xml"/>
        <additional-files value="Simulation_Environment\Main%20MADDPG\osm.poly.xml,Simulation_Environment\Main%20MADDPG\lanearea_detectors.xml,Simulation_Environment\Main%20MADDPG\trips.trips.xml"/>
    </input>

    <output>
        <tripinfo-output value="Simulation_Environment\Main%20MADDPG\Results\tripinfo.xml"/>
    </output>

    <processing>
        <ignore-route-errors value="true"/>
    </processing>

    <routing>
        <device.rerouting.adaptation-steps value="18"/>
        <device.rerouting.adaptation-interval value="10"/>
    </routing>

    <report>
        <verbose value="true"/>
        <duration-log.statistics value="true"/>
        <no-step-log value="true"/>
    </report>

    <traci_server>
        <remote-port value="54127"/>
    </traci_server>

    <gui_only>
        <gui-settings-file value="Simulation_Environment\Main%20MADDPG\osm.view.xml"/>
        <start value="true"/>
    </gui_only>

</configuration>
-->

<tripinfos xmlns:xsi="http://www.w3.org/2001/XMLSchema-instance" xsi:noNamespaceSchemaLocation="http://sumo.dlr.de/xsd/tripinfo_file.xsd">
    <tripinfo id="1" depart="5.00" departLane="north_corrales_1_0" departPos="5.10" departSpeed="0.00" departDelay="0.00" arrival="50.00" arrivalLane="north_corrales_1_0" arrivalPos="310.82" arrivalSpeed="7.39" duration="45.00" routeLength="305.72" waitingTime="0.00" waitingCount="0" stopTime="0.00" timeLoss="5.26" rerouteNo="1" devices="tripinfo_1 routing_1" vType="DEFAULT_VEHTYPE" speedFactor="0.94" vaporized=""/>
    <tripinfo id="2" depart="10.00" departLane="south_roa_1_0" departPos="5.10" departSpeed="0.00" departDelay="0.00" arrival="83.00" arrivalLane="south_osmena_3_1" arrivalPos="103.19" arrivalSpeed="7.84" duration="73.00" routeLength="589.16" waitingTime="0.00" waitingCount="0" stopTime="0.00" timeLoss="7.33" rerouteNo="1" devices="tripinfo_2 routing_2" vType="DEFAULT_VEHTYPE" speedFactor="1.01" vaporized=""/>
    <tripinfo id="14" depart="70.00" departLane="west_luna_2_0" departPos="5.10" departSpeed="0.00" departDelay="0.00" arrival="101.00" arrivalLane="south_osmena_1_1" arrivalPos="42.12" arrivalSpeed="7.45" duration="31.00" routeLength="218.17" waitingTime="0.00" waitingCount="0" stopTime="0.00" timeLoss="3.76" rerouteNo="0" devices="tripinfo_14 routing_14" vType="DEFAULT_VEHTYPE" speedFactor="0.99" vaporized=""/>
    <tripinfo id="3" depart="15.00" departLane="west_recto_0_0" departPos="5.10" departSpeed="0.00" departDelay="0.00" arrival="107.00" arrivalLane="east_luna_2_0" arrivalPos="117.06" arrivalSpeed="8.81" duration="92.00" routeLength="513.48" waitingTime="24.00" waitingCount="1" stopTime="0.00" timeLoss="36.02" rerouteNo="1" devices="tripinfo_3 routing_3" vType="DEFAULT_VEHTYPE" speedFactor="1.08" vaporized=""/>
    <tripinfo id="4" depart="20.00" departLane="north_roa_0_0" departPos="5.10" departSpeed="0.00" departDelay="0.00" arrival="123.00" arrivalLane="east_luna_0_0" arrivalPos="161.58" arrivalSpeed="7.50" duration="103.00" routeLength="753.14" waitingTime="1.00" waitingCount="1" stopTime="0.00" timeLoss="13.99" rerouteNo="1" devices="tripinfo_4 routing_4" vType="DEFAULT_VEHTYPE" speedFactor="1.03" vaporized=""/>
    <tripinfo id="6" depart="30.00" departLane="east_florentino_0_0" departPos="5.10" departSpeed="0.00" departDelay="0.00" arrival="126.00" arrivalLane="east_recto_2_1" arrivalPos="69.61" arrivalSpeed="11.26" duration="96.00" routeLength="769.50" waitingTime="6.00" waitingCount="2" stopTime="0.00" timeLoss="23.88" rerouteNo="1" devices="tripinfo_6 routing_6" vType="DEFAULT_VEHTYPE" speedFactor="1.05" vaporized=""/>
    <tripinfo id="7" depart="35.00" departLane="south_osmena_2_0" departPos="5.10" departSpeed="0.00" departDelay="0.00" arrival="144.00" arrivalLane="south_corrales_2_0" arrivalPos="131.95" arrivalSpeed="6.80" duration="109.00" routeLength="716.62" waitingTime="9.00" waitingCount="1" stopTime="0.00" timeLoss="22.63" rerouteNo="1" devices="tripinfo_7 routing_7" vType="DEFAULT_VEHTYPE" speedFactor="0.89" vaporized=""/>
    <tripinfo id="15" depart="75.00" departLane="west_luna_1_0" departPos="5.10" departSpeed="0.00" departDelay="0.00" arrival="153.00" arrivalLane="south_roa_1_0" arrivalPos="299.38" arrivalSpeed="7.52" duration="78.00" routeLength="533.23" waitingTime="0.00" waitingCount="0" stopTime="0.00" timeLoss="8.47" rerouteNo="0" devices="tripinfo_15 routing_15" vType="DEFAULT_VEHTYPE" speedFactor="0.93" vaporized=""/>
    <tripinfo id="12" depart="60.00" departLane="west_recto_1_0" departPos="5.10" departSpeed="0.00" departDelay="0.00" arrival="154.00" arrivalLane="north_osmena_2_0" arrivalPos="42.12" arrivalSpeed="8.46" duration="94.00" routeLength="619.34" waitingTime="23.00" waitingCount="1" stopTime="0.00" timeLoss="32.04" rerouteNo="1" devices="tripinfo_12 routing_12" vType="DEFAULT_VEHTYPE" speedFactor="1.05" vaporized=""/>
    <tripinfo id="18" depart="90.00" departLane="west_luna_1_0" departPos="5.10" departSpeed="0.00" departDelay="0.00" arrival="157.00" arrivalLane="south_osmena_1_1" arrivalPos="42.12" arrivalSpeed="7.40" duration="67.00" routeLength="454.96" waitingTime="0.00" waitingCount="0" stopTime="0.00" timeLoss="7.77" rerouteNo="1" devices="tripinfo_18 routing_18" vType="DEFAULT_VEHTYPE" speedFactor="0.94" vaporized=""/>
    <tripinfo id="9" depart="45.00" departLane="west_luna_1_0" departPos="5.10" departSpeed="0.00" departDelay="0.00" arrival="163.00" arrivalLane="east_luna_0_0" arrivalPos="161.58" arrivalSpeed="5.91" duration="118.00" routeLength="673.17" waitingTime="8.00" waitingCount="1" stopTime="0.00" timeLoss="22.61" rerouteNo="1" devices="tripinfo_9 routing_9" vType="DEFAULT_VEHTYPE" speedFactor="0.86" vaporized=""/>
    <tripinfo id="8" depart="40.00" departLane="north_corrales_0_0" departPos="5.10" departSpeed="0.00" departDelay="0.00" arrival="170.00" arrivalLane="south_osmena_1_1" arrivalPos="42.12" arrivalSpeed="7.34" duration="130.00" routeLength="821.24" waitingTime="17.00" waitingCount="2" stopTime="0.00" timeLoss="34.76" rerouteNo="1" devices="tripinfo_8 routing_8" vType="DEFAULT_VEHTYPE" speedFactor="0.94" vaporized=""/>
    <tripinfo id="10" depart="50.00" departLane="west_luna_1_0" departPos="5.10" departSpeed="0.00" departDelay="0.00" arrival="175.00" arrivalLane="south_osmena_3_1" arrivalPos="103.19" arrivalSpeed="9.01" duration="125.00" routeLength="828.11" waitingTime="20.00" waitingCount="2" stopTime="0.00" timeLoss="38.19" rerouteNo="1" devices="tripinfo_10 routing_10" vType="DEFAULT_VEHTYPE" speedFactor="1.09" vaporized=""/>
    <tripinfo id="23" depart="115.00" departLane="east_luna_1_0" departPos="5.10" departSpeed="0.00" departDelay="0.00" arrival="180.00" arrivalLane="north_corrales_2_1" arrivalPos="70.13" arrivalSpeed="6.88" duration="65.00" routeLength="310.90" waitingTime="15.00" waitingCount="1" stopTime="0.00" timeLoss="23.05" rerouteNo="0" devices="tripinfo_23 routing_23" vType="DEFAULT_VEHTYPE" speedFactor="0.89" vaporized=""/>
    <tripinfo id="13" depart="65.00" departLane="east_luna_1_0" departPos="5.10" departSpeed="0.00" departDelay="0.00" arrival="182.00" arrivalLane="east_luna_2_0" arrivalPos="117.06" arrivalSpeed="8.53" duration="117.00" routeLength="357.18" waitingTime="69.00" waitingCount="1" stopTime="0.00" timeLoss="78.67" rerouteNo="0" devices="tripinfo_13 routing_13" vType="DEFAULT_VEHTYPE" speedFactor="1.12" vaporized=""/>
    <tripinfo id="20" depart="100.00" departLane="south_roa_0_0" departPos="5.10" departSpeed="0.00" departDelay="0.00" arrival="196.00" arrivalLane="east_luna_1_0" arrivalPos="221.96" arrivalSpeed="8.21" duration="96.00" routeLength="309.10" waitingTime="53.00" waitingCount="1" stopTime="0.00" timeLoss="59.37" rerouteNo="0" devices="tripinfo_20 routing_20" vType="DEFAULT_VEHTYPE" speedFactor="1.02" vaporized=""/>
    <tripinfo id="32" depart="160.00" departLane="west_luna_2_0" departPos="5.10" departSpeed="0.00" departDelay="0.00" arrival="223.00" arrivalLane="west_florentino_0_0" arrivalPos="95.58" arrivalSpeed="12.87" duration="63.00" routeLength="322.94" waitingTime="19.00" waitingCount="1" stopTime="0.00" timeLoss="28.62" rerouteNo="1" devices="tripinfo_32 routing_32" vType="DEFAULT_VEHTYPE" speedFactor="1.01" vaporized=""/>
    <tripinfo id="35" depart="175.00" departLane="north_corrales_0_0" departPos="5.10" departSpeed="0.00" departDelay="0.00" arrival="237.00" arrivalLane="west_recto_2_1" arrivalPos="159.43" arrivalSpeed="10.95" duration="62.00" routeLength="483.34" waitingTime="5.00" waitingCount="1" stopTime="0.00" timeLoss="14.50" rerouteNo="1" devices="tripinfo_35 routing_35" vType="DEFAULT_VEHTYPE" speedFactor="1.02" vaporized=""/>
    <tripinfo id="29" depart="145.00" departLane="east_recto_0_0" departPos="5.10" departSpeed="0.00" departDelay="0.00" arrival="238.00" arrivalLane="north_osmena_3_0" arrivalPos="107.11" arrivalSpeed="6.92" duration="93.00" routeLength="605.92" waitingTime="8.00" waitingCount="1" stopTime="0.00" timeLoss="20.11" rerouteNo="1" devices="tripinfo_29 routing_29" vType="DEFAULT_VEHTYPE" speedFactor="0.93" vaporized=""/>
    <tripinfo id="39" depart="195.00" departLane="north_corrales_1_0" departPos="5.10" departSpeed="0.00" departDelay="0.00" arrival="242.00" arrivalLane="north_corrales_1_0" arrivalPos="310.82" arrivalSpeed="6.96" duration="47.00" routeLength="305.72" waitingTime="0.00" waitingCount="0" stopTime="0.00" timeLoss="5.51" rerouteNo="1" devices="tripinfo_39 routing_39" vType="DEFAULT_VEHTYPE" speedFactor="0.90" vaporized=""/>
    <tripinfo id="11" depart="55.00" departLane="north_osmena_1_0" departPos="5.10" departSpeed="0.00" departDelay="0.00" arrival="245.00" arrivalLane="east_recto_1_0" arrivalPos="333.33" arrivalSpeed="5.38" duration="190.00" routeLength="913.27" waitingTime="66.00" waitingCount="3" stopTime="0.00" timeLoss="92.17" rerouteNo="1" devices="tripinfo_11 routing_11" vType="DEFAULT_VEHTYPE" speedFactor="1.03" vaporized=""/>
    <tripinfo id="44" depart="220.00" departLane="east_luna_1_0" departPos="5.10" departSpeed="0.00" departDelay="0.00" arrival="249.00" arrivalLane="east_luna_1_0" arrivalPos="221.96" arrivalSpeed="7.98" duration="29.00" routeLength="216.86" waitingTime="0.00" waitingCount="0" stopTime="0.00" timeLoss="3.59" rerouteNo="1" devices="tripinfo_44 routing_44" vType="DEFAULT_VEHTYPE" speedFactor="1.04" vaporized=""/>
    <tripinfo id="21" depart="105.00" departLane="north_corrales_0_0" departPos="5.10" departSpeed="0.00" departDelay="0.00" arrival="256.00" arrivalLane="north_corrales_2_1" arrivalPos="70.13" arrivalSpeed="7.19" duration="151.00" routeLength="564.33" waitingTime="72.00" waitingCount="1" stopTime="0.00" timeLoss="83.38" rerouteNo="1" devices="tripinfo_21 routing_21" vType="DEFAULT_VEHTYPE" speedFactor="1.01" vaporized=""/>
    <tripinfo id="17" depart="85.00" departLane="north_osmena_2_0" departPos="5.10" departSpeed="0.00" departDelay="0.00" arrival="257.00" arrivalLane="south_corrales_2_0" arrivalPos="131.95" arrivalSpeed="6.60" duration="172.00" routeLength="819.96" waitingTime="61.00" waitingCount="2" stopTime="0.00" timeLoss="77.09" rerouteNo="1" devices="tripinfo_17 routing_17" vType="DEFAULT_VEHTYPE" speedFactor="0.94" vaporized=""/>
    <tripinfo id="19" depart="95.00" departLane="west_luna_2_0" departPos="5.10" departSpeed="0.00" departDelay="0.00" arrival="258.00" arrivalLane="south_corrales_2_1" arrivalPos="131.95" arrivalSpeed="8.79" duration="163.00" routeLength="954.31" waitingTime="43.00" waitingCount="1" stopTime="0.00" timeLoss="72.58" rerouteNo="1" devices="tripinfo_19 routing_19" vType="DEFAULT_VEHTYPE" speedFactor="1.16" vaporized=""/>
    <tripinfo id="16" depart="80.00" departLane="south_corrales_1_0" departPos="5.10" departSpeed="0.00" departDelay="0.00" arrival="261.00" arrivalLane="west_recto_3_1" arrivalPos="180.94" arrivalSpeed="8.54" duration="181.00" routeLength="859.29" waitingTime="66.00" waitingCount="1" stopTime="0.00" timeLoss="81.46" rerouteNo="1" devices="tripinfo_16 routing_16" vType="DEFAULT_VEHTYPE" speedFactor="0.88" vaporized=""/>
    <tripinfo id="5" depart="25.00" departLane="north_corrales_0_0" departPos="5.10" departSpeed="0.00" departDelay="0.00" arrival="265.00" arrivalLane="south_corrales_1_0" arrivalPos="312.28" arrivalSpeed="6.48" duration="240.00" routeLength="976.28" waitingTime="74.00" waitingCount="2" stopTime="0.00" timeLoss="97.31" rerouteNo="1" devices="tripinfo_5 routing_5" vType="DEFAULT_VEHTYPE" speedFactor="0.83" vaporized=""/>
    <tripinfo id="33" depart="165.00" departLane="north_corrales_0_0" departPos="5.10" departSpeed="0.00" departDelay="0.00" arrival="292.00" arrivalLane="east_luna_0_0" arrivalPos="161.58" arrivalSpeed="9.51" duration="127.00" routeLength="945.85" waitingTime="20.00" waitingCount="2" stopTime="0.00" timeLoss="37.88" rerouteNo="1" devices="tripinfo_33 routing_33" vType="DEFAULT_VEHTYPE" speedFactor="1.17" vaporized=""/>
    <tripinfo id="28" depart="140.00" departLane="east_recto_1_0" departPos="5.10" departSpeed="0.00" departDelay="0.00" arrival="298.00" arrivalLane="south_roa_1_0" arrivalPos="299.38" arrivalSpeed="8.04" duration="158.00" routeLength="1226.13" waitingTime="1.00" waitingCount="1" stopTime="0.00" timeLoss="36.85" rerouteNo="1" devices="tripinfo_28 routing_28" vType="DEFAULT_VEHTYPE" speedFactor="1.13" vaporized=""/>
    <tripinfo id="40" depart="200.00" departLane="south_osmena_0_0" departPos="5.10" departSpeed="0.00" departDelay="0.00" arrival="301.00" arrivalLane="north_corrales_2_1" arrivalPos="70.13" arrivalSpeed="7.86" duration="101.00" routeLength="614.05" waitingTime="15.00" waitingCount="2" stopTime="0.00" timeLoss="28.78" rerouteNo="1" devices="tripinfo_40 routing_40" vType="DEFAULT_VEHTYPE" speedFactor="1.03" vaporized=""/>
    <tripinfo id="38" depart="190.00" departLane="west_recto_0_0" departPos="5.10" departSpeed="0.00" departDelay="0.00" arrival="302.00" arrivalLane="north_roa_1_0" arrivalPos="75.42" arrivalSpeed="8.17" duration="112.00" routeLength="652.69" waitingTime="31.00" waitingCount="2" stopTime="0.00" timeLoss="46.95" rerouteNo="1" devices="tripinfo_38 routing_38" vType="DEFAULT_VEHTYPE" speedFactor="1.10" vaporized=""/>
    <tripinfo id="0" depart="0.00" departLane="south_osmena_2_0" departPos="5.10" departSpeed="0.00" departDelay="0.00" arrival="307.00" arrivalLane="east_luna_0_1" arrivalPos="161.58" arrivalSpeed="8.74" duration="307.00" routeLength="1610.74" waitingTime="100.00" waitingCount="3" stopTime="0.00" timeLoss="133.63" rerouteNo="1" devices="tripinfo_0 routing_0" vType="DEFAULT_VEHTYPE" speedFactor="1.06" vaporized=""/>
    <tripinfo id="26" depart="130.00" departLane="north_corrales_1_0" departPos="5.10" departSpeed="0.00" departDelay="0.00" arrival="316.00" arrivalLane="west_recto_2_1" arrivalPos="159.43" arrivalSpeed="9.03" duration="186.00" routeLength="1035.06" waitingTime="33.00" waitingCount="2" stopTime="0.00" timeLoss="54.83" rerouteNo="1" devices="tripinfo_26 routing_26" vType="DEFAULT_VEHTYPE" speedFactor="0.92" vaporized=""/>
    <tripinfo id="31" depart="155.00" departLane="south_osmena_0_0" departPos="5.10" departSpeed="0.00" departDelay="0.00" arrival="334.00" arrivalLane="south_osmena_3_0" arrivalPos="103.19" arrivalSpeed="8.99" duration="179.00" routeLength="533.28" waitingTime="109.00" waitingCount="2" stopTime="0.00" timeLoss="123.50" rerouteNo="1" devices="tripinfo_31 routing_31" vType="DEFAULT_VEHTYPE" speedFactor="1.15" vaporized=""/>
    <tripinfo id="56" depart="280.00" departLane="south_corrales_1_0" departPos="5.10" departSpeed="0.00" departDelay="0.00" arrival="338.00" arrivalLane="east_recto_2_2" arrivalPos="69.61" arrivalSpeed="9.19" duration="58.00" routeLength="403.79" waitingTime="0.00" waitingCount="0" stopTime="0.00" timeLoss="6.24" rerouteNo="0" devices="tripinfo_56 routing_56" vType="DEFAULT_VEHTYPE" speedFactor="0.90" vaporized=""/>
    <tripinfo id="47" depart="235.00" departLane="east_luna_0_0" departPos="5.10" departSpeed="0.00" departDelay="0.00" arrival="340.00" arrivalLane="north_osmena_3_0" arrivalPos="107.11" arrivalSpeed="6.83" duration="105.00" routeLength="616.44" waitingTime="2.00" waitingCount="2" stopTime="0.00" timeLoss="20.88" rerouteNo="1" devices="tripinfo_47 routing_47" vType="DEFAULT_VEHTYPE" speedFactor="0.90" vaporized=""/>
    <tripinfo id="34" depart="170.00" departLane="north_osmena_0_0" departPos="5.10" departSpeed="0.00" departDelay="0.00" arrival="343.00" arrivalLane="north_corrales_2_0" arrivalPos="70.13" arrivalSpeed="7.52" duration="173.00" routeLength="874.64" waitingTime="57.00" waitingCount="3" stopTime="0.00" timeLoss="77.59" rerouteNo="1" devices="tripinfo_34 routing_34" vType="DEFAULT_VEHTYPE" speedFactor="0.99" vaporized=""/>
    <tripinfo id="41" depart="205.00" departLane="south_osmena_1_0" departPos="5.10" departSpeed="0.00" departDelay="0.00" arrival="348.00" arrivalLane="west_recto_1_0" arrivalPos="159.53" arrivalSpeed="9.77" duration="143.00" routeLength="989.12" waitingTime="3.00" waitingCount="1" stopTime="0.00" timeLoss="22.74" rerouteNo="1" devices="tripinfo_41 routing_41" vType="DEFAULT_VEHTYPE" speedFactor="0.96" vaporized=""/>
    <tripinfo id="51" depart="255.00" departLane="south_roa_0_0" departPos="5.10" departSpeed="0.00" departDelay="0.00" arrival="349.00" arrivalLane="south_corrales_1_0" arrivalPos="312.28" arrivalSpeed="9.55" duration="94.00" routeLength="630.50" waitingTime="18.00" waitingCount="1" stopTime="0.00" timeLoss="28.26" rerouteNo="1" devices="tripinfo_51 routing_51" vType="DEFAULT_VEHTYPE" speedFactor="1.17" vaporized=""/>
    <tripinfo id="60" depart="300.00" departLane="west_luna_0_0" departPos="5.10" departSpeed="0.00" departDelay="0.00" arrival="356.00" arrivalLane="south_corrales_1_0" arrivalPos="312.28" arrivalSpeed="7.85" duration="56.00" routeLength="446.78" waitingTime="0.00" waitingCount="0" stopTime="0.00" timeLoss="5.98" rerouteNo="0" devices="tripinfo_60 routing_60" vType="DEFAULT_VEHTYPE" speedFactor="1.08" vaporized=""/>
    <tripinfo id="30" depart="150.00" departLane="west_recto_2_0" departPos="5.10" departSpeed="0.00" departDelay="0.00" arrival="358.00" arrivalLane="south_osmena_2_0" arrivalPos="222.57" arrivalSpeed="9.81" duration="208.00" routeLength="729.22" waitingTime="114.00" waitingCount="3" stopTime="0.00" timeLoss="135.89" rerouteNo="1" devices="tripinfo_30 routing_30" vType="DEFAULT_VEHTYPE" speedFactor="1.18" vaporized=""/>
    <tripinfo id="61" depart="305.00" departLane="west_luna_0_0" departPos="5.10" departSpeed="0.00" departDelay="0.00" arrival="358.00" arrivalLane="south_corrales_1_0" arrivalPos="312.28" arrivalSpeed="8.90" duration="53.00" routeLength="446.78" waitingTime="0.00" waitingCount="0" stopTime="0.00" timeLoss="5.07" rerouteNo="0" devices="tripinfo_61 routing_61" vType="DEFAULT_VEHTYPE" speedFactor="1.12" vaporized=""/>
    <tripinfo id="50" depart="250.00" departLane="east_florentino_0_0" departPos="5.10" departSpeed="0.00" departDelay="0.00" arrival="382.00" arrivalLane="south_roa_1_0" arrivalPos="299.38" arrivalSpeed="7.10" duration="132.00" routeLength="629.47" waitingTime="27.00" waitingCount="2" stopTime="0.00" timeLoss="47.65" rerouteNo="1" devices="tripinfo_50 routing_50" vType="DEFAULT_VEHTYPE" speedFactor="0.85" vaporized=""/>
    <tripinfo id="53" depart="265.00" departLane="east_luna_1_0" departPos="5.10" departSpeed="0.00" departDelay="0.00" arrival="387.00" arrivalLane="north_roa_0_0" arrivalPos="299.38" arrivalSpeed="8.60" duration="122.00" routeLength="1022.70" waitingTime="0.00" waitingCount="0" stopTime="0.00" timeLoss="13.13" rerouteNo="1" devices="tripinfo_53 routing_53" vType="DEFAULT_VEHTYPE" speedFactor="1.10" vaporized=""/>
    <tripinfo id="36" depart="180.00" departLane="west_recto_0_0" departPos="5.10" departSpeed="0.00" departDelay="0.00" arrival="389.00" arrivalLane="north_osmena_1_0" arrivalPos="222.57" arrivalSpeed="7.38" duration="209.00" routeLength="655.78" waitingTime="126.00" waitingCount="2" stopTime="0.00" timeLoss="140.75" rerouteNo="1" devices="tripinfo_36 routing_36" vType="DEFAULT_VEHTYPE" speedFactor="0.97" vaporized=""/>
    <tripinfo id="58" depart="290.00" departLane="north_osmena_0_0" departPos="5.10" departSpeed="0.00" departDelay="0.00" arrival="396.00" arrivalLane="south_osmena_2_0" arrivalPos="222.57" arrivalSpeed="7.39" duration="106.00" routeLength="688.18" waitingTime="13.00" waitingCount="1" stopTime="0.00" timeLoss="24.74" rerouteNo="1" devices="tripinfo_58 routing_58" vType="DEFAULT_VEHTYPE" speedFactor="1.02" vaporized=""/>
    <tripinfo id="66" depart="330.00" departLane="west_recto_0_0" departPos="5.10" departSpeed="0.00" departDelay="0.00" arrival="398.00" arrivalLane="west_recto_2_0" arrivalPos="159.43" arrivalSpeed="9.23" duration="68.00" routeLength="421.26" waitingTime="17.00" waitingCount="1" stopTime="0.00" timeLoss="25.92" rerouteNo="1" devices="tripinfo_66 routing_66" vType="DEFAULT_VEHTYPE" speedFactor="0.91" vaporized=""/>
    <tripinfo id="27" depart="135.00" departLane="south_osmena_2_0" departPos="5.10" departSpeed="0.00" departDelay="0.00" arrival="401.00" arrivalLane="south_osmena_1_1" arrivalPos="42.12" arrivalSpeed="7.40" duration="266.00" routeLength="1392.53" waitingTime="67.00" waitingCount="2" stopTime="0.00" timeLoss="100.51" rerouteNo="1" devices="tripinfo_27 routing_27" vType="DEFAULT_VEHTYPE" speedFactor="0.95" vaporized=""/>
    <tripinfo id="37" depart="185.00" departLane="south_osmena_2_0" departPos="5.10" departSpeed="0.00" departDelay="0.00" arrival="402.00" arrivalLane="north_osmena_3_0" arrivalPos="107.11" arrivalSpeed="9.06" duration="217.00" routeLength="1446.99" waitingTime="29.00" waitingCount="1" stopTime="0.00" timeLoss="78.42" rerouteNo="1" devices="tripinfo_37 routing_37" vType="DEFAULT_VEHTYPE" speedFactor="1.18" vaporized=""/>
    <tripinfo id="45" depart="225.00" departLane="east_luna_1_0" departPos="5.10" departSpeed="0.00" departDelay="0.00" arrival="417.00" arrivalLane="south_osmena_2_0" arrivalPos="222.57" arrivalSpeed="8.70" duration="192.00" routeLength="1099.59" waitingTime="50.00" waitingCount="2" stopTime="0.00" timeLoss="69.32" rerouteNo="1" devices="tripinfo_45 routing_45" vType="DEFAULT_VEHTYPE" speedFactor="1.09" vaporized=""/>
    <tripinfo id="52" depart="260.00" departLane="north_corrales_1_0" departPos="5.10" departSpeed="0.00" departDelay="0.00" arrival="424.00" arrivalLane="south_osmena_2_0" arrivalPos="222.57" arrivalSpeed="7.63" duration="164.00" routeLength="1025.32" waitingTime="26.00" waitingCount="1" stopTime="0.00" timeLoss="42.75" rerouteNo="1" devices="tripinfo_52 routing_52" vType="DEFAULT_VEHTYPE" speedFactor="1.02" vaporized=""/>
    <tripinfo id="49" depart="245.00" departLane="west_recto_2_0" departPos="5.10" departSpeed="0.00" departDelay="0.00" arrival="435.00" arrivalLane="west_luna_2_0" arrivalPos="161.58" arrivalSpeed="6.34" duration="190.00" routeLength="960.65" waitingTime="34.00" waitingCount="2" stopTime="0.00" timeLoss="57.65" rerouteNo="1" devices="tripinfo_49 routing_49" vType="DEFAULT_VEHTYPE" speedFactor="0.85" vaporized=""/>
    <tripinfo id="57" depart="285.00" departLane="west_recto_0_0" departPos="5.10" departSpeed="0.00" departDelay="0.00" arrival="440.00" arrivalLane="west_luna_2_0" arrivalPos="161.58" arrivalSpeed="8.97" duration="155.00" routeLength="734.87" waitingTime="58.00" waitingCount="3" stopTime="0.00" timeLoss="83.60" rerouteNo="1" devices="tripinfo_57 routing_57" vType="DEFAULT_VEHTYPE" speedFactor="1.14" vaporized=""/>
    <tripinfo id="43" depart="215.00" departLane="west_recto_2_0" departPos="5.10" departSpeed="0.00" departDelay="0.00" arrival="450.00" arrivalLane="south_corrales_1_1" arrivalPos="312.28" arrivalSpeed="7.53" duration="235.00" routeLength="1174.75" waitingTime="75.00" waitingCount="3" stopTime="0.00" timeLoss="102.15" rerouteNo="1" devices="tripinfo_43 routing_43" vType="DEFAULT_VEHTYPE" speedFactor="1.04" vaporized=""/>
    <tripinfo id="68" depart="346.00" departLane="east_luna_0_0" departPos="5.10" departSpeed="0.00" departDelay="6.00" arrival="451.00" arrivalLane="west_florentino_0_0" arrivalPos="95.58" arrivalSpeed="14.07" duration="105.00" routeLength="666.75" waitingTime="8.00" waitingCount="2" stopTime="0.00" timeLoss="31.11" rerouteNo="1" devices="tripinfo_68 routing_68" vType="DEFAULT_VEHTYPE" speedFactor="1.04" vaporized=""/>
    <tripinfo id="22" depart="110.00" departLane="east_luna_0_0" departPos="5.10" departSpeed="0.00" departDelay="0.00" arrival="453.00" arrivalLane="north_corrales_1_0" arrivalPos="310.82" arrivalSpeed="4.76" duration="343.00" routeLength="1491.42" waitingTime="127.00" waitingCount="6" stopTime="0.00" timeLoss="169.28" rerouteNo="1" devices="tripinfo_22 routing_22" vType="DEFAULT_VEHTYPE" speedFactor="0.98" vaporized=""/>
    <tripinfo id="42" depart="210.00" departLane="north_osmena_2_0" departPos="5.10" departSpeed="0.00" departDelay="0.00" arrival="453.00" arrivalLane="north_corrales_1_1" arrivalPos="310.82" arrivalSpeed="5.79" duration="243.00" routeLength="1013.26" waitingTime="108.00" waitingCount="3" stopTime="0.00" timeLoss="140.20" rerouteNo="1" devices="tripinfo_42 routing_42" vType="DEFAULT_VEHTYPE" speedFactor="1.09" vaporized=""/>
    <tripinfo id="25" depart="125.00" departLane="north_osmena_1_0" departPos="5.10" departSpeed="0.00" departDelay="0.00" arrival="455.00" arrivalLane="north_corrales_1_0" arrivalPos="310.82" arrivalSpeed="6.30" duration="330.00" routeLength="1250.29" waitingTime="135.00" waitingCount="3" stopTime="0.00" timeLoss="169.36" rerouteNo="1" devices="tripinfo_25 routing_25" vType="DEFAULT_VEHTYPE" speedFactor="0.87" vaporized=""/>
    <tripinfo id="48" depart="240.00" departLane="west_recto_2_0" departPos="5.10" departSpeed="0.00" departDelay="0.00" arrival="460.00" arrivalLane="south_corrales_1_0" arrivalPos="312.28" arrivalSpeed="7.30" duration="220.00" routeLength="1174.75" waitingTime="40.00" waitingCount="2" stopTime="0.00" timeLoss="62.62" rerouteNo="1" devices="tripinfo_48 routing_48" vType="DEFAULT_VEHTYPE" speedFactor="0.88" vaporized=""/>
    <tripinfo id="70" depart="350.00" departLane="south_corrales_0_0" departPos="5.10" departSpeed="0.00" departDelay="0.00" arrival="460.00" arrivalLane="south_corrales_2_0" arrivalPos="131.95" arrivalSpeed="8.20" duration="110.00" routeLength="565.92" waitingTime="33.00" waitingCount="1" stopTime="0.00" timeLoss="42.97" rerouteNo="1" devices="tripinfo_70 routing_70" vType="DEFAULT_VEHTYPE" speedFactor="1.02" vaporized=""/>
    <tripinfo id="81" depart="405.00" departLane="north_corrales_0_0" departPos="5.10" departSpeed="0.00" departDelay="0.00" arrival="462.00" arrivalLane="west_recto_1_1" arrivalPos="159.53" arrivalSpeed="10.27" duration="57.00" routeLength="309.53" waitingTime="13.00" waitingCount="2" stopTime="0.00" timeLoss="24.35" rerouteNo="0" devices="tripinfo_81 routing_81" vType="DEFAULT_VEHTYPE" speedFactor="1.00" vaporized=""/>
    <tripinfo id="55" depart="275.00" departLane="west_recto_0_0" departPos="5.10" departSpeed="0.00" departDelay="0.00" arrival="464.00" arrivalLane="north_corrales_2_0" arrivalPos="70.13" arrivalSpeed="7.63" duration="189.00" routeLength="478.39" waitingTime="118.00" waitingCount="2" stopTime="0.00" timeLoss="132.08" rerouteNo="1" devices="tripinfo_55 routing_55" vType="DEFAULT_VEHTYPE" speedFactor="1.00" vaporized=""/>
    <tripinfo id="24" depart="120.00" departLane="south_osmena_2_0" departPos="5.10" departSpeed="0.00" departDelay="0.00" arrival="465.00" arrivalLane="north_osmena_2_1" arrivalPos="42.12" arrivalSpeed="5.78" duration="345.00" routeLength="1439.33" waitingTime="112.00" waitingCount="4" stopTime="0.00" timeLoss="147.66" rerouteNo="1" devices="tripinfo_24 routing_24" vType="DEFAULT_VEHTYPE" speedFactor="0.83" vaporized=""/>
    <tripinfo id="78" depart="390.00" departLane="north_osmena_1_0" departPos="5.10" departSpeed="0.00" departDelay="0.00" arrival="466.00" arrivalLane="south_osmena_1_1" arrivalPos="42.12" arrivalSpeed="8.14" duration="76.00" routeLength="320.85" waitingTime="27.00" waitingCount="1" stopTime="0.00" timeLoss="36.76" rerouteNo="1" devices="tripinfo_78 routing_78" vType="DEFAULT_VEHTYPE" speedFactor="1.01" vaporized=""/>
    <tripinfo id="54" depart="270.00" departLane="north_roa_0_0" departPos="5.10" departSpeed="0.00" departDelay="0.00" arrival="467.00" arrivalLane="west_recto_2_1" arrivalPos="159.43" arrivalSpeed="8.24" duration="197.00" routeLength="959.98" waitingTime="68.00" waitingCount="1" stopTime="0.00" timeLoss="85.11" rerouteNo="1" devices="tripinfo_54 routing_54" vType="DEFAULT_VEHTYPE" speedFactor="1.00" vaporized=""/>
    <tripinfo id="92" depart="460.00" departLane="north_osmena_2_0" departPos="5.10" departSpeed="0.00" departDelay="0.00" arrival="467.00" arrivalLane="north_osmena_2_0" arrivalPos="42.12" arrivalSpeed="6.45" duration="7.00" routeLength="37.02" waitingTime="0.00" waitingCount="0" stopTime="0.00" timeLoss="1.40" rerouteNo="1" devices="tripinfo_92 routing_92" vType="DEFAULT_VEHTYPE" speedFactor="0.83" vaporized=""/>
    <tripinfo id="59" depart="295.00" departLane="south_osmena_1_0" departPos="5.10" departSpeed="0.00" departDelay="0.00" arrival="475.00" arrivalLane="east_recto_1_0" arrivalPos="333.33" arrivalSpeed="9.88" duration="180.00" routeLength="629.44" waitingTime="97.00" waitingCount="2" stopTime="0.00" timeLoss="112.45" rerouteNo="1" devices="tripinfo_59 routing_59" vType="DEFAULT_VEHTYPE" speedFactor="0.97" vaporized=""/>