<?xml version="1.0" encoding="UTF-8"?>

<!-- generated on 2023-04-01 22:01:53 by Eclipse SUMO GUI Version 1.15.0
<configuration xmlns:xsi="http://www.w3.org/2001/XMLSchema-instance" xsi:noNamespaceSchemaLocation="http://sumo.dlr.de/xsd/sumoConfiguration.xsd">

    <input>
        <net-file value="Simulation_Environment\Static Envi\osm.net.xml"/>
        <route-files value="Simulation_Environment\Static Envi\Final Vehicle Route/buses_route.xml,Simulation_Environment\Static Envi\Final Vehicle Route/bicycle_tricycle_route.xml,Simulation_Environment\Static Envi\Final Vehicle Route/cars_SUV_route.xml,Simulation_Environment\Static Envi\Final Vehicle Route/jeepney_route.xml,Simulation_Environment\Static Envi\Final Vehicle Route/largeTrucks_route.xml,Simulation_Environment\Static Envi\Final Vehicle Route/motorcycles_scooters_route.xml,Simulation_Environment\Static Envi\Final Vehicle Route/motorela_route.xml,Simulation_Environment\Static Envi\Final Vehicle Route/smallTrucks_route.xml,Simulation_Environment\Static Envi\Final Vehicle Route/taxi_route.xml,Simulation_Environment\Static Envi\Final Vehicle Route/others_route.xml"/>
        <additional-files value="Simulation_Environment\Static Envi\osm.poly.xml,Simulation_Environment\Static Envi\ lanearea_detectors.xml"/>
    </input>

    <output>
        <tripinfo-output value="Simulation_Environment\Static Envi\Results\tripinfo.xml"/>
    </output>

    <processing>
        <ignore-route-errors value="true"/>
    </processing>

    <routing>
        <device.rerouting.adaptation-steps value="18"/>
        <device.rerouting.adaptation-interval value="10"/>
    </routing>

    <report>
        <verbose value="true"/>
        <duration-log.statistics value="true"/>
        <no-step-log value="true"/>
    </report>

    <traci_server>
        <remote-port value="64848"/>
    </traci_server>

    <gui_only>
        <gui-settings-file value="Simulation_Environment\Static Envi\osm.view.xml"/>
        <start value="true"/>
    </gui_only>

</configuration>
-->

<tripinfos xmlns:xsi="http://www.w3.org/2001/XMLSchema-instance" xsi:noNamespaceSchemaLocation="http://sumo.dlr.de/xsd/tripinfo_file.xsd">
    <tripinfo id="b0_0" depart="0.00" departLane="west_luna_0_0" departPos="5.10" departSpeed="0.00" departDelay="0.00" arrival="31.00" arrivalLane="north_corrales_2_0" arrivalPos="70.13" arrivalSpeed="8.54" duration="31.00" routeLength="191.17" waitingTime="0.00" waitingCount="0" stopTime="0.00" timeLoss="8.20" rerouteNo="0" devices="tripinfo_b0_0" vType="cars_SUV" speedFactor="1.03" vaporized=""/>
    <tripinfo id="90_0" depart="4.00" departLane="west_recto_0_0" departPos="2.10" departSpeed="0.00" departDelay="4.00" arrival="40.00" arrivalLane="south_corrales_2_0" arrivalPos="131.95" arrivalSpeed="7.21" duration="36.00" routeLength="225.68" waitingTime="0.00" waitingCount="0" stopTime="0.00" timeLoss="7.73" rerouteNo="0" devices="tripinfo_90_0" vType="taxi" speedFactor="0.88" vaporized=""/>
    <tripinfo id="40_1" depart="12.00" departLane="west_luna_0_0" departPos="2.10" departSpeed="0.00" departDelay="0.46" arrival="42.00" arrivalLane="north_corrales_2_0" arrivalPos="70.13" arrivalSpeed="8.43" duration="30.00" routeLength="194.17" waitingTime="0.00" waitingCount="0" stopTime="0.00" timeLoss="6.62" rerouteNo="0" devices="tripinfo_40_1" vType="motorcycles_scooters" speedFactor="1.03" vaporized=""/>
    <tripinfo id="a0_0" depart="0.00" departLane="east_recto_0_0" departPos="2.10" departSpeed="0.00" departDelay="0.00" arrival="44.00" arrivalLane="east_recto_2_0" arrivalPos="155.92" arrivalSpeed="14.08" duration="44.00" routeLength="532.89" waitingTime="0.00" waitingCount="0" stopTime="0.00" timeLoss="4.54" rerouteNo="0" devices="tripinfo_a0_0" vType="bicycle_tricycle" speedFactor="1.01" vaporized=""/>
    <tripinfo id="b0_6" depart="36.00" departLane="north_corrales_0_0" departPos="5.10" departSpeed="0.00" departDelay="0.00" arrival="66.00" arrivalLane="east_recto_3_0" arrivalPos="69.61" arrivalSpeed="12.12" duration="30.00" routeLength="207.02" waitingTime="0.00" waitingCount="0" stopTime="0.00" timeLoss="10.14" rerouteNo="0" devices="tripinfo_b0_6" vType="cars_SUV" speedFactor="1.18" vaporized=""/>
    <tripinfo id="40_0" depart="0.00" departLane="south_corrales_0_0" departPos="2.10" departSpeed="0.00" departDelay="0.00" arrival="72.00" arrivalLane="south_corrales_2_0" arrivalPos="131.95" arrivalSpeed="9.03" duration="72.00" routeLength="568.92" waitingTime="0.00" waitingCount="0" stopTime="0.00" timeLoss="8.49" rerouteNo="0" devices="tripinfo_40_0" vType="motorcycles_scooters" speedFactor="1.09" vaporized=""/>
    <tripinfo id="50_0" depart="3.00" departLane="south_corrales_0_0" departPos="2.10" departSpeed="0.00" departDelay="3.00" arrival="76.00" arrivalLane="south_corrales_2_0" arrivalPos="131.95" arrivalSpeed="7.79" duration="73.00" routeLength="568.92" waitingTime="0.00" waitingCount="0" stopTime="0.00" timeLoss="7.23" rerouteNo="0" devices="tripinfo_50_0" vType="motorela" speedFactor="1.05" vaporized=""/>
    <tripinfo id="70_0" depart="6.00" departLane="south_corrales_0_0" departPos="7.10" departSpeed="0.00" departDelay="6.00" arrival="84.00" arrivalLane="south_corrales_2_0" arrivalPos="131.95" arrivalSpeed="7.96" duration="78.00" routeLength="563.92" waitingTime="0.00" waitingCount="0" stopTime="0.00" timeLoss="8.93" rerouteNo="0" devices="tripinfo_70_0" vType="smallTrucks" speedFactor="0.99" vaporized=""/>
    <tripinfo id="90_8" depart="59.00" departLane="north_corrales_0_0" departPos="2.10" departSpeed="0.00" departDelay="0.82" arrival="87.00" arrivalLane="east_recto_3_0" arrivalPos="69.61" arrivalSpeed="11.77" duration="28.00" routeLength="210.02" waitingTime="0.00" waitingCount="0" stopTime="0.00" timeLoss="6.65" rerouteNo="0" devices="tripinfo_90_8" vType="taxi" speedFactor="1.10" vaporized=""/>
    <tripinfo id="10_0" depart="0.00" departLane="west_recto_0_0" departPos="15.10" departSpeed="0.00" departDelay="0.00" arrival="88.00" arrivalLane="north_roa_1_0" arrivalPos="75.34" arrivalSpeed="8.65" duration="88.00" routeLength="635.69" waitingTime="0.00" waitingCount="0" stopTime="0.00" timeLoss="21.79" rerouteNo="0" devices="tripinfo_10_0" vType="buses" speedFactor="1.06" vaporized=""/>
    <tripinfo id="20_2" depart="36.00" departLane="east_florentino_0_0" departPos="7.10" departSpeed="0.00" departDelay="2.36" arrival="99.00" arrivalLane="west_recto_3_0" arrivalPos="180.94" arrivalSpeed="11.88" duration="63.00" routeLength="507.28" waitingTime="0.00" waitingCount="0" stopTime="0.00" timeLoss="14.53" rerouteNo="0" devices="tripinfo_20_2" vType="jeepney" speedFactor="1.08" vaporized=""/>
    <tripinfo id="90_2" depart="15.00" departLane="north_corrales_0_0" departPos="2.10" departSpeed="0.00" departDelay="0.45" arrival="102.00" arrivalLane="north_corrales_2_0" arrivalPos="70.13" arrivalSpeed="8.57" duration="87.00" routeLength="567.33" waitingTime="6.00" waitingCount="1" stopTime="0.00" timeLoss="22.80" rerouteNo="0" devices="tripinfo_90_2" vType="taxi" speedFactor="1.06" vaporized=""/>
    <tripinfo id="90_9" depart="66.00" departLane="south_osmena_0_0" departPos="2.10" departSpeed="0.00" departDelay="0.55" arrival="105.00" arrivalLane="west_florentino_0_0" arrivalPos="95.42" arrivalSpeed="12.50" duration="39.00" routeLength="269.48" waitingTime="0.00" waitingCount="0" stopTime="0.00" timeLoss="8.34" rerouteNo="0" devices="tripinfo_90_9" vType="taxi" speedFactor="0.92" vaporized=""/>
    <tripinfo id="b0_1" depart="6.00" departLane="east_recto_0_0" departPos="5.10" departSpeed="0.00" departDelay="0.00" arrival="107.00" arrivalLane="east_recto_3_0" arrivalPos="69.61" arrivalSpeed="9.05" duration="101.00" routeLength="622.20" waitingTime="32.00" waitingCount="1" stopTime="0.00" timeLoss="56.93" rerouteNo="0" devices="tripinfo_b0_1" vType="cars_SUV" speedFactor="0.83" vaporized=""/>
    <tripinfo id="60_0" depart="6.00" departLane="west_luna_0_0" departPos="7.10" departSpeed="0.00" departDelay="6.00" arrival="107.00" arrivalLane="north_roa_1_0" arrivalPos="75.34" arrivalSpeed="7.76" duration="101.00" routeLength="439.20" waitingTime="28.00" waitingCount="1" stopTime="0.00" timeLoss="43.77" rerouteNo="0" devices="tripinfo_60_0" vType="others" speedFactor="0.94" vaporized=""/>
    <tripinfo id="20_0" depart="0.00" departLane="north_osmena_0_0" departPos="7.10" departSpeed="0.00" departDelay="0.00" arrival="108.00" arrivalLane="west_florentino_0_1" arrivalPos="95.42" arrivalSpeed="11.82" duration="108.00" routeLength="457.57" waitingTime="32.00" waitingCount="2" stopTime="0.00" timeLoss="59.64" rerouteNo="0" devices="tripinfo_20_0" vType="jeepney" speedFactor="1.05" vaporized=""/>
    <tripinfo id="90_3" depart="22.00" departLane="north_corrales_0_0" departPos="2.10" departSpeed="0.00" departDelay="0.18" arrival="108.00" arrivalLane="north_corrales_2_1" arrivalPos="70.13" arrivalSpeed="7.69" duration="86.00" routeLength="567.33" waitingTime="0.00" waitingCount="0" stopTime="0.00" timeLoss="14.62" rerouteNo="0" devices="tripinfo_90_3" vType="taxi" speedFactor="0.96" vaporized=""/>
    <tripinfo id="90_1" depart="9.00" departLane="west_luna_0_0" departPos="2.10" departSpeed="0.00" departDelay="1.73" arrival="109.00" arrivalLane="north_roa_1_0" arrivalPos="75.34" arrivalSpeed="7.70" duration="100.00" routeLength="444.20" waitingTime="27.00" waitingCount="1" stopTime="0.00" timeLoss="42.60" rerouteNo="0" devices="tripinfo_90_1" vType="taxi" speedFactor="0.94" vaporized=""/>
    <tripinfo id="b0_2" depart="12.00" departLane="north_corrales_0_0" departPos="5.10" departSpeed="0.00" departDelay="0.00" arrival="110.00" arrivalLane="north_corrales_2_0" arrivalPos="70.13" arrivalSpeed="7.43" duration="98.00" routeLength="564.33" waitingTime="6.00" waitingCount="1" stopTime="0.00" timeLoss="23.33" rerouteNo="0" devices="tripinfo_b0_2" vType="cars_SUV" speedFactor="0.92" vaporized=""/>
    <tripinfo id="60_1" depart="54.00" departLane="north_osmena_0_0" departPos="7.10" departSpeed="0.00" departDelay="0.27" arrival="113.00" arrivalLane="south_corrales_2_0" arrivalPos="131.95" arrivalSpeed="9.49" duration="59.00" routeLength="579.25" waitingTime="0.00" waitingCount="0" stopTime="0.00" timeLoss="21.53" rerouteNo="0" devices="tripinfo_60_1" vType="others" speedFactor="1.16" vaporized=""/>
    <tripinfo id="b0_13" depart="78.00" departLane="south_osmena_0_0" departPos="5.10" departSpeed="0.00" departDelay="0.00" arrival="113.00" arrivalLane="west_florentino_0_0" arrivalPos="95.42" arrivalSpeed="12.89" duration="35.00" routeLength="266.48" waitingTime="0.00" waitingCount="0" stopTime="0.00" timeLoss="11.72" rerouteNo="0" devices="tripinfo_b0_13" vType="cars_SUV" speedFactor="1.18" vaporized=""/>
    <tripinfo id="b0_5" depart="30.00" departLane="east_florentino_0_0" departPos="5.10" departSpeed="0.00" departDelay="0.00" arrival="114.00" arrivalLane="north_roa_1_1" arrivalPos="75.34" arrivalSpeed="7.62" duration="84.00" routeLength="412.41" waitingTime="12.00" waitingCount="2" stopTime="0.00" timeLoss="34.95" rerouteNo="0" devices="tripinfo_b0_5" vType="cars_SUV" speedFactor="0.93" vaporized=""/>
    <tripinfo id="b0_10" depart="62.00" departLane="west_luna_0_0" departPos="5.10" departSpeed="0.00" departDelay="2.00" arrival="120.00" arrivalLane="north_corrales_2_0" arrivalPos="70.13" arrivalSpeed="8.28" duration="58.00" routeLength="191.17" waitingTime="19.00" waitingCount="1" stopTime="0.00" timeLoss="33.85" rerouteNo="0" devices="tripinfo_b0_10" vType="cars_SUV" speedFactor="0.99" vaporized=""/>
    <tripinfo id="90_5" depart="39.00" departLane="north_corrales_0_0" departPos="2.10" departSpeed="0.00" departDelay="2.64" arrival="126.00" arrivalLane="north_corrales_2_0" arrivalPos="70.13" arrivalSpeed="7.11" duration="87.00" routeLength="567.33" waitingTime="0.00" waitingCount="0" stopTime="0.00" timeLoss="8.20" rerouteNo="0" devices="tripinfo_90_5" vType="taxi" speedFactor="0.87" vaporized=""/>
    <tripinfo id="b0_3" depart="18.00" departLane="west_recto_0_0" departPos="5.10" departSpeed="0.00" departDelay="0.00" arrival="127.00" arrivalLane="south_osmena_3_1" arrivalPos="103.19" arrivalSpeed="7.89" duration="109.00" routeLength="546.81" waitingTime="31.00" waitingCount="2" stopTime="0.00" timeLoss="53.22" rerouteNo="0" devices="tripinfo_b0_3" vType="cars_SUV" speedFactor="0.95" vaporized=""/>
    <tripinfo id="b0_4" depart="24.00" departLane="west_recto_0_0" departPos="5.10" departSpeed="0.00" departDelay="0.00" arrival="132.00" arrivalLane="west_florentino_0_1" arrivalPos="95.42" arrivalSpeed="13.92" duration="108.00" routeLength="763.98" waitingTime="18.00" waitingCount="1" stopTime="0.00" timeLoss="41.93" rerouteNo="0" devices="tripinfo_b0_4" vType="cars_SUV" speedFactor="1.13" vaporized=""/>
    <tripinfo id="a0_1" depart="86.00" departLane="west_recto_0_0" departPos="2.10" departSpeed="0.00" departDelay="4.18" arrival="133.00" arrivalLane="west_recto_2_2" arrivalPos="156.24" arrivalSpeed="9.10" duration="47.00" routeLength="423.42" waitingTime="1.00" waitingCount="1" stopTime="0.00" timeLoss="11.42" rerouteNo="0" devices="tripinfo_a0_1" vType="bicycle_tricycle" speedFactor="1.08" vaporized=""/>
    <tripinfo id="b0_12" depart="72.00" departLane="east_recto_0_0" departPos="5.10" departSpeed="0.00" departDelay="0.00" arrival="135.00" arrivalLane="east_recto_3_1" arrivalPos="69.61" arrivalSpeed="10.59" duration="63.00" routeLength="622.20" waitingTime="0.00" waitingCount="0" stopTime="0.00" timeLoss="25.83" rerouteNo="0" devices="tripinfo_b0_12" vType="cars_SUV" speedFactor="0.97" vaporized=""/>
    <tripinfo id="20_3" depart="57.00" departLane="west_luna_0_0" departPos="7.10" departSpeed="0.00" departDelay="6.53" arrival="138.00" arrivalLane="north_osmena_3_0" arrivalPos="107.11" arrivalSpeed="9.15" duration="81.00" routeLength="650.00" waitingTime="0.00" waitingCount="0" stopTime="0.00" timeLoss="11.00" rerouteNo="0" devices="tripinfo_20_3" vType="jeepney" speedFactor="1.12" vaporized=""/>
    <tripinfo id="90_6" depart="44.00" departLane="west_recto_0_0" departPos="2.10" departSpeed="0.00" departDelay="0.36" arrival="144.00" arrivalLane="south_osmena_3_1" arrivalPos="103.19" arrivalSpeed="8.73" duration="100.00" routeLength="549.81" waitingTime="31.00" waitingCount="1" stopTime="0.00" timeLoss="51.49" rerouteNo="0" devices="tripinfo_90_6" vType="taxi" speedFactor="1.10" vaporized=""/>
    <tripinfo id="20_1" depart="17.00" departLane="east_florentino_0_0" departPos="7.10" departSpeed="0.00" departDelay="0.18" arrival="145.00" arrivalLane="south_corrales_2_0" arrivalPos="131.95" arrivalSpeed="6.99" duration="128.00" routeLength="812.97" waitingTime="14.00" waitingCount="2" stopTime="0.00" timeLoss="53.07" rerouteNo="0" devices="tripinfo_20_1" vType="jeepney" speedFactor="0.89" vaporized=""/>
    <tripinfo id="40_2" depart="27.00" departLane="west_recto_0_0" departPos="2.10" departSpeed="0.00" departDelay="3.92" arrival="148.00" arrivalLane="west_recto_3_0" arrivalPos="180.94" arrivalSpeed="10.75" duration="121.00" routeLength="625.68" waitingTime="47.00" waitingCount="1" stopTime="0.00" timeLoss="63.47" rerouteNo="0" devices="tripinfo_40_2" vType="motorcycles_scooters" speedFactor="0.98" vaporized=""/>
    <tripinfo id="90_4" depart="30.00" departLane="west_recto_0_0" departPos="2.10" departSpeed="0.00" departDelay="0.91" arrival="148.00" arrivalLane="south_osmena_3_1" arrivalPos="103.19" arrivalSpeed="7.23" duration="118.00" routeLength="549.81" waitingTime="43.00" waitingCount="1" stopTime="0.00" timeLoss="60.93" rerouteNo="0" devices="tripinfo_90_4" vType="taxi" speedFactor="0.93" vaporized=""/>
    <tripinfo id="50_1" depart="63.00" departLane="east_recto_0_0" departPos="2.10" departSpeed="0.00" departDelay="0.93" arrival="150.00" arrivalLane="north_osmena_3_0" arrivalPos="107.11" arrivalSpeed="9.09" duration="87.00" routeLength="608.92" waitingTime="8.00" waitingCount="2" stopTime="0.00" timeLoss="26.50" rerouteNo="0" devices="tripinfo_50_1" vType="motorela" speedFactor="1.12" vaporized=""/>
    <tripinfo id="40_3" depart="35.00" departLane="west_recto_0_0" departPos="2.10" departSpeed="0.00" departDelay="0.38" arrival="150.00" arrivalLane="west_recto_3_1" arrivalPos="180.94" arrivalSpeed="10.80" duration="115.00" routeLength="625.68" waitingTime="41.00" waitingCount="1" stopTime="0.00" timeLoss="58.98" rerouteNo="0" devices="tripinfo_40_3" vType="motorcycles_scooters" speedFactor="1.01" vaporized=""/>
    <tripinfo id="90_7" depart="51.00" departLane="east_recto_0_0" departPos="2.10" departSpeed="0.00" departDelay="0.09" arrival="153.00" arrivalLane="north_osmena_3_0" arrivalPos="107.11" arrivalSpeed="8.19" duration="102.00" routeLength="608.92" waitingTime="13.00" waitingCount="2" stopTime="0.00" timeLoss="34.34" rerouteNo="0" devices="tripinfo_90_7" vType="taxi" speedFactor="1.01" vaporized=""/>
    <tripinfo id="b0_8" depart="48.00" departLane="south_roa_0_0" departPos="5.10" departSpeed="0.00" departDelay="0.00" arrival="165.00" arrivalLane="east_luna_2_0" arrivalPos="117.06" arrivalSpeed="8.08" duration="117.00" routeLength="448.75" waitingTime="46.00" waitingCount="1" stopTime="0.00" timeLoss="62.99" rerouteNo="0" devices="tripinfo_b0_8" vType="cars_SUV" speedFactor="1.01" vaporized=""/>
    <tripinfo id="b0_15" depart="92.00" departLane="west_recto_0_0" departPos="5.10" departSpeed="0.00" departDelay="2.00" arrival="165.00" arrivalLane="north_corrales_2_0" arrivalPos="70.13" arrivalSpeed="7.22" duration="73.00" routeLength="478.39" waitingTime="0.00" waitingCount="0" stopTime="0.00" timeLoss="10.09" rerouteNo="0" devices="tripinfo_b0_15" vType="cars_SUV" speedFactor="0.90" vaporized=""/>
    <tripinfo id="40_6" depart="70.00" departLane="south_corrales_0_0" departPos="2.10" departSpeed="0.00" departDelay="0.77" arrival="165.00" arrivalLane="east_recto_3_2" arrivalPos="69.61" arrivalSpeed="10.61" duration="95.00" routeLength="501.80" waitingTime="19.00" waitingCount="2" stopTime="0.00" timeLoss="37.23" rerouteNo="0" devices="tripinfo_40_6" vType="motorcycles_scooters" speedFactor="1.00" vaporized=""/>
    <tripinfo id="b0_14" depart="84.00" departLane="south_corrales_0_0" departPos="5.10" departSpeed="0.00" departDelay="0.00" arrival="168.00" arrivalLane="south_corrales_2_0" arrivalPos="131.95" arrivalSpeed="8.98" duration="84.00" routeLength="565.92" waitingTime="0.00" waitingCount="0" stopTime="0.00" timeLoss="21.97" rerouteNo="0" devices="tripinfo_b0_14" vType="cars_SUV" speedFactor="1.10" vaporized=""/>
    <tripinfo id="70_5" depart="98.00" departLane="west_recto_0_0" departPos="7.10" departSpeed="0.00" departDelay="6.63" arrival="169.00" arrivalLane="east_luna_2_0" arrivalPos="117.06" arrivalSpeed="8.59" duration="71.00" routeLength="511.48" waitingTime="0.00" waitingCount="0" stopTime="0.00" timeLoss="14.49" rerouteNo="0" devices="tripinfo_70_5" vType="smallTrucks" speedFactor="1.06" vaporized=""/>
    <tripinfo id="40_8" depart="93.00" departLane="south_corrales_0_0" departPos="2.10" departSpeed="0.00" departDelay="0.69" arrival="172.00" arrivalLane="south_corrales_2_0" arrivalPos="131.95" arrivalSpeed="8.03" duration="79.00" routeLength="568.92" waitingTime="0.00" waitingCount="0" stopTime="0.00" timeLoss="7.51" rerouteNo="0" devices="tripinfo_40_8" vType="motorcycles_scooters" speedFactor="0.97" vaporized=""/>
    <tripinfo id="90_13" depart="95.00" departLane="east_florentino_0_0" departPos="2.10" departSpeed="0.00" departDelay="0.45" arrival="173.00" arrivalLane="north_osmena_3_0" arrivalPos="107.11" arrivalSpeed="8.76" duration="78.00" routeLength="279.90" waitingTime="24.00" waitingCount="1" stopTime="0.00" timeLoss="50.24" rerouteNo="0" devices="tripinfo_90_13" vType="taxi" speedFactor="1.07" vaporized=""/>
    <tripinfo id="b0_11" depart="66.00" departLane="north_osmena_0_0" departPos="5.10" departSpeed="0.00" departDelay="0.00" arrival="176.00" arrivalLane="south_osmena_3_0" arrivalPos="103.19" arrivalSpeed="8.14" duration="110.00" routeLength="819.56" waitingTime="0.00" waitingCount="0" stopTime="0.00" timeLoss="12.70" rerouteNo="0" devices="tripinfo_b0_11" vType="cars_SUV" speedFactor="1.02" vaporized=""/>
    <tripinfo id="70_7" depart="131.00" departLane="east_florentino_0_0" departPos="7.10" departSpeed="0.00" departDelay="3.08" arrival="176.00" arrivalLane="north_osmena_3_0" arrivalPos="107.11" arrivalSpeed="7.75" duration="45.00" routeLength="274.90" waitingTime="0.00" waitingCount="0" stopTime="0.00" timeLoss="14.50" rerouteNo="0" devices="tripinfo_70_7" vType="smallTrucks" speedFactor="0.97" vaporized=""/>
    <tripinfo id="30_0" depart="0.00" departLane="south_osmena_0_0" departPos="12.10" departSpeed="0.00" departDelay="0.00" arrival="181.00" arrivalLane="north_corrales_2_0" arrivalPos="70.13" arrivalSpeed="7.69" duration="181.00" routeLength="1181.58" waitingTime="10.00" waitingCount="1" stopTime="0.00" timeLoss="60.25" rerouteNo="0" devices="tripinfo_30_0" vType="largeTrucks" speedFactor="0.94" vaporized=""/>
    <tripinfo id="90_16" depart="117.00" departLane="south_corrales_0_0" departPos="2.10" departSpeed="0.00" departDelay="0.64" arrival="191.00" arrivalLane="south_corrales_2_0" arrivalPos="131.95" arrivalSpeed="8.24" duration="74.00" routeLength="568.92" waitingTime="0.00" waitingCount="0" stopTime="0.00" timeLoss="7.31" rerouteNo="0" devices="tripinfo_90_16" vType="taxi" speedFactor="1.03" vaporized=""/>
    <tripinfo id="40_5" depart="59.00" departLane="east_recto_0_0" departPos="2.10" departSpeed="0.00" departDelay="1.31" arrival="195.00" arrivalLane="east_recto_3_0" arrivalPos="69.61" arrivalSpeed="11.18" duration="136.00" routeLength="625.20" waitingTime="50.00" waitingCount="4" stopTime="0.00" timeLoss="100.40" rerouteNo="0" devices="tripinfo_40_5" vType="motorcycles_scooters" speedFactor="1.03" vaporized=""/>
    <tripinfo id="70_4" depart="74.00" departLane="east_florentino_0_0" departPos="7.10" departSpeed="0.00" departDelay="0.90" arrival="197.00" arrivalLane="north_roa_1_1" arrivalPos="75.34" arrivalSpeed="8.85" duration="123.00" routeLength="410.41" waitingTime="53.00" waitingCount="2" stopTime="0.00" timeLoss="81.38" rerouteNo="0" devices="tripinfo_70_4" vType="smallTrucks" speedFactor="1.10" vaporized=""/>
    <tripinfo id="90_11" depart="80.00" departLane="east_florentino_0_0" departPos="2.10" departSpeed="0.00" departDelay="0.00" arrival="197.00" arrivalLane="west_florentino_0_0" arrivalPos="95.42" arrivalSpeed="13.62" duration="117.00" routeLength="300.33" waitingTime="56.00" waitingCount="2" stopTime="0.00" timeLoss="88.68" rerouteNo="0" devices="tripinfo_90_11" vType="taxi" speedFactor="1.00" vaporized=""/>
    <tripinfo id="b0_7" depart="42.00" departLane="east_recto_0_0" departPos="5.10" departSpeed="0.00" departDelay="0.00" arrival="198.00" arrivalLane="east_recto_3_0" arrivalPos="69.61" arrivalSpeed="10.47" duration="156.00" routeLength="622.20" waitingTime="57.00" waitingCount="3" stopTime="0.00" timeLoss="123.59" rerouteNo="0" devices="tripinfo_b0_7" vType="cars_SUV" speedFactor="1.15" vaporized=""/>
    <tripinfo id="b0_9" depart="56.00" departLane="east_recto_0_0" departPos="5.10" departSpeed="0.00" departDelay="2.00" arrival="199.00" arrivalLane="east_recto_3_0" arrivalPos="69.61" arrivalSpeed="10.43" duration="143.00" routeLength="622.20" waitingTime="52.00" waitingCount="2" stopTime="0.00" timeLoss="110.61" rerouteNo="0" devices="tripinfo_b0_9" vType="cars_SUV" speedFactor="1.17" vaporized=""/>
    <tripinfo id="b0_17" depart="102.00" departLane="south_roa_0_0" departPos="5.10" departSpeed="0.00" departDelay="0.00" arrival="199.00" arrivalLane="east_luna_2_0" arrivalPos="117.06" arrivalSpeed="7.73" duration="97.00" routeLength="448.75" waitingTime="17.00" waitingCount="2" stopTime="0.00" timeLoss="40.12" rerouteNo="0" devices="tripinfo_b0_17" vType="cars_SUV" speedFactor="0.96" vaporized=""/>
    <tripinfo id="b0_26" depart="156.00" departLane="east_florentino_0_0" departPos="5.10" departSpeed="0.00" departDelay="0.00" arrival="200.00" arrivalLane="north_osmena_3_0" arrivalPos="107.11" arrivalSpeed="7.09" duration="44.00" routeLength="276.90" waitingTime="0.00" waitingCount="0" stopTime="0.00" timeLoss="9.71" rerouteNo="0" devices="tripinfo_b0_26" vType="cars_SUV" speedFactor="0.85" vaporized=""/>
    <tripinfo id="20_6" depart="101.00" departLane="east_recto_0_0" departPos="7.10" departSpeed="0.00" departDelay="0.07" arrival="201.00" arrivalLane="east_recto_3_1" arrivalPos="69.61" arrivalSpeed="10.09" duration="100.00" routeLength="620.20" waitingTime="29.00" waitingCount="1" stopTime="0.00" timeLoss="60.52" rerouteNo="0" devices="tripinfo_20_6" vType="jeepney" speedFactor="0.94" vaporized=""/>
    <tripinfo id="40_7" depart="84.00" departLane="west_recto_0_0" departPos="2.10" departSpeed="0.00" departDelay="3.23" arrival="205.00" arrivalLane="west_recto_3_1" arrivalPos="180.94" arrivalSpeed="11.14" duration="121.00" routeLength="625.68" waitingTime="43.00" waitingCount="1" stopTime="0.00" timeLoss="65.30" rerouteNo="0" devices="tripinfo_40_7" vType="motorcycles_scooters" speedFactor="1.02" vaporized=""/>
    <tripinfo id="90_10" depart="73.00" departLane="west_recto_0_0" departPos="2.10" departSpeed="0.00" departDelay="0.27" arrival="205.00" arrivalLane="north_osmena_3_0" arrivalPos="107.11" arrivalSpeed="9.63" duration="132.00" routeLength="839.73" waitingTime="23.00" waitingCount="1" stopTime="0.00" timeLoss="56.28" rerouteNo="0" devices="tripinfo_90_10" vType="taxi" speedFactor="1.18" vaporized=""/>
    <tripinfo id="70_2" depart="40.00" departLane="west_recto_0_0" departPos="7.10" departSpeed="0.00" departDelay="3.45" arrival="208.00" arrivalLane="west_recto_3_0" arrivalPos="180.94" arrivalSpeed="9.69" duration="168.00" routeLength="620.68" waitingTime="76.00" waitingCount="3" stopTime="0.00" timeLoss="105.45" rerouteNo="0" devices="tripinfo_70_2" vType="smallTrucks" speedFactor="0.91" vaporized=""/>
    <tripinfo id="b0_16" depart="112.00" departLane="west_recto_0_0" departPos="5.10" departSpeed="0.00" departDelay="16.00" arrival="209.00" arrivalLane="west_recto_3_1" arrivalPos="180.94" arrivalSpeed="11.30" duration="97.00" routeLength="622.68" waitingTime="18.00" waitingCount="1" stopTime="0.00" timeLoss="42.17" rerouteNo="0" devices="tripinfo_b0_16" vType="cars_SUV" speedFactor="1.03" vaporized=""/>
    <tripinfo id="b0_20" depart="120.00" departLane="north_osmena_0_0" departPos="5.10" departSpeed="0.00" departDelay="0.00" arrival="209.00" arrivalLane="north_osmena_3_1" arrivalPos="107.11" arrivalSpeed="8.40" duration="89.00" routeLength="532.32" waitingTime="11.00" waitingCount="1" stopTime="0.00" timeLoss="27.11" rerouteNo="0" devices="tripinfo_b0_20" vType="cars_SUV" speedFactor="1.04" vaporized=""/>
    <tripinfo id="90_12" depart="88.00" departLane="west_recto_0_0" departPos="2.10" departSpeed="0.00" departDelay="0.73" arrival="209.00" arrivalLane="west_recto_3_0" arrivalPos="180.94" arrivalSpeed="10.31" duration="121.00" routeLength="625.68" waitingTime="43.00" waitingCount="1" stopTime="0.00" timeLoss="64.08" rerouteNo="0" devices="tripinfo_90_12" vType="taxi" speedFactor="0.99" vaporized=""/>
    <tripinfo id="30_1" depart="40.00" departLane="south_roa_0_0" departPos="12.10" departSpeed="0.00" departDelay="0.44" arrival="211.00" arrivalLane="north_corrales_2_1" arrivalPos="70.13" arrivalSpeed="7.07" duration="171.00" routeLength="989.92" waitingTime="10.00" waitingCount="1" stopTime="0.00" timeLoss="48.80" rerouteNo="0" devices="tripinfo_30_1" vType="largeTrucks" speedFactor="0.86" vaporized=""/>
    <tripinfo id="40_4" depart="47.00" departLane="south_corrales_0_0" departPos="2.10" departSpeed="0.00" departDelay="0.85" arrival="211.00" arrivalLane="west_recto_3_0" arrivalPos="180.94" arrivalSpeed="11.35" duration="164.00" routeLength="954.51" waitingTime="37.00" waitingCount="4" stopTime="0.00" timeLoss="72.64" rerouteNo="0" devices="tripinfo_40_4" vType="motorcycles_scooters" speedFactor="1.09" vaporized=""/>
    <tripinfo id="90_22" depart="163.00" departLane="west_recto_0_0" departPos="2.10" departSpeed="0.00" departDelay="3.00" arrival="211.00" arrivalLane="south_corrales_2_1" arrivalPos="131.95" arrivalSpeed="9.28" duration="48.00" routeLength="225.68" waitingTime="5.00" waitingCount="2" stopTime="0.00" timeLoss="25.17" rerouteNo="0" devices="tripinfo_90_22" vType="taxi" speedFactor="1.12" vaporized=""/>
    <tripinfo id="60_2" depart="108.00" departLane="north_corrales_0_0" departPos="7.10" departSpeed="0.00" departDelay="0.54" arrival="216.00" arrivalLane="west_recto_3_0" arrivalPos="180.94" arrivalSpeed="12.19" duration="108.00" routeLength="683.52" waitingTime="25.00" waitingCount="2" stopTime="0.00" timeLoss="48.62" rerouteNo="0" devices="tripinfo_60_2" vType="others" speedFactor="1.12" vaporized=""/>
    <tripinfo id="30_2" depart="80.00" departLane="west_recto_0_0" departPos="12.10" departSpeed="0.00" departDelay="0.88" arrival="217.00" arrivalLane="west_recto_3_1" arrivalPos="180.94" arrivalSpeed="10.35" duration="137.00" routeLength="615.68" waitingTime="37.00" waitingCount="1" stopTime="0.00" timeLoss="77.80" rerouteNo="0" devices="tripinfo_30_2" vType="largeTrucks" speedFactor="0.94" vaporized=""/>
    <tripinfo id="b0_18" depart="108.00" departLane="south_corrales_0_0" departPos="5.10" departSpeed="0.00" departDelay="0.00" arrival="218.00" arrivalLane="south_osmena_3_1" arrivalPos="103.19" arrivalSpeed="9.09" duration="110.00" routeLength="875.64" waitingTime="2.00" waitingCount="1" stopTime="0.00" timeLoss="22.86" rerouteNo="0" devices="tripinfo_b0_18" vType="cars_SUV" speedFactor="1.09" vaporized=""/>